ABINIT
ABINIT/en
ABINIT/fr
ACPYPE
ADF
ADF/en
ADF/fr
AI and Machine Learning
AI and Machine Learning/en
AI and Machine Learning/fr
AMBER
AMBER/en
AMBER/fr
AMS
AMS/en
AMS/fr
ANSYS
ARM software
ARM software/en
ARM software/fr
ASCP
A tutorial on 'tar'
A tutorial on 'tar'/en
A tutorial on 'tar'/fr
Abaqus
Abaqus/en
Abaqus/fr
Abinit
Access to files of users leaving a project
Access to files of users leaving a project/en
Access to files of users leaving a project/fr
Accessing CVMFS
Accessing CVMFS/en
Accessing CVMFS/fr
Accessing object storage with AWS CLI/en
Accessing object storage with AWS CLI/fr
Accessing object storage with WinSCP
Accessing object storage with WinSCP/en
Accessing object storage with WinSCP/fr
Accessing object storage with s3cmd
Accessing object storage with s3cmd/en
Accessing object storage with s3cmd/fr
Accessing our software environment on your computer
Accessing the Arbutus object storage with AWS CLI
Accessing the Arbutus object storage with AWS CLI/en
Accessing the Arbutus object storage with AWS CLI/fr
Account renewal
Account renewal/en
Account renewal/fr
Account renewal FAQ
Account renewal FAQ/en
Account renewal FAQ/fr
Acknowledging the Alliance
Acknowledging the Alliance/en
Acknowledging the Alliance/fr
Advanced Job Submission
Advanced Job Submission/en
Advanced Job Submission/fr
Advanced Jupyter configuration
Advanced Jupyter configuration/en
Advanced Jupyter configuration/fr
Advanced MPI scheduling
Advanced MPI scheduling/en
Advanced MPI scheduling/fr
AiiDA
Alliance CCV submission guide
Alliance CCV submission guide/en
Alliance CCV submission guide/fr
Allinea
Allinea software
Allocations and compute scheduling
Allocations and compute scheduling/en
Allocations and compute scheduling/fr
Allocations and resource scheduling
Allocations and resource scheduling/fr
AlphaFold
AlphaFold2
AlphaFold2/en
AlphaFold2/fr
AlphaFold3
AlphaFold3/en
AlphaFold3/fr
Altair FEKO
Altair FEKO/en
Altair FEKO/fr
Amber
Amsterdam Density Functional Modeling Suite
Anaconda
Anaconda/en
Anaconda/fr
Ansys
Ansys/en
Ansys/fr
AnsysEDT
AnsysEDT/en
AnsysEDT/fr
Apache Spark
Apache Spark/en
Apache Spark/fr
Apply for a CCDB account
Apply for a CCDB account/en
Apply for a CCDB account/fr
Apptainer
Apptainer/en
Apptainer/fr
Arbutus
Arbutus/West Cloud
Arbutus/en
Arbutus/fr
Arbutus CephFS
Arbutus CephFS User Guide
Arbutus CephFS user guide
Arbutus Migration Guide
Arbutus Migration Guide/en
Arbutus Migration Guide/fr
Arbutus Object Storage
Arbutus Object Storage User Guide
Arbutus Object Storage User Guide/en
Arbutus User Documentation
Arbutus object storage
Arbutus object storage/en
Arbutus object storage/fr
Arbutus object storage clients
Arbutus object storage clients/en
Arbutus object storage clients/fr
Arbutus user documentation
Archiving and Compressing Data for Migration
Archiving and compressing files
Archiving and compressing files/en
Archiving and compressing files/fr
Arrow
Arrow/en
Arrow/fr
Ascp
Aspera Connect
Aspera connect
Astronomy and High Energy Physics Interactive Analysis Facility
Authoring Guidelines
Authoring Guidelines/fr
Authoring guidelines
Authoring guidelines/en
Authoring guidelines/fr
Automating VM creation
Automating VM creation/en
Automating VM creation/fr
Automation in the context of multifactor authentication
Automation in the context of multifactor authentication/en
Automation in the context of multifactor authentication/fr
Autotools
Autotools/en
Autotools/fr
Available Python wheels
Available Python wheels/en
Available Python wheels/fr
Available software
Available software/en
Available software/fr
Available wheels
BEAST
BEAST/en
BEAST/fr
BLAST
BLAST+
BLAST/en
BLAST/fr
BLAS and LAPACK
BLAS and LAPACK/en
BLAS and LAPACK/fr
BUSCO
BUSCO/en
BUSCO/fr
Backing up your VM
Backing up your VM/en
Backing up your VM/fr
Beluga
Beluga/en
Best practices for data migration
Best practices for job submission
Best practices for job submission/en
Best practices for job submission/fr
Bioinformatics
Bioinformatics/en
Bioinformatics/fr
Biomolecular simulation
Biomolecular simulation/en
Biomolecular simulation/fr
Biorepo Containers
Biorepo containers
Blast
BraCeR
Build tools
Build tools/en
Build tools/fr
Building a Software Carpentry style lesson on the wiki
Building a Software Carpentry style lesson on the wiki/en
Building a Software Carpentry style lesson on the wiki/fr
Building a web portal
Béluga
Béluga/en
Béluga/fr
C
C++
C++/en
C++/fr
C/en
C/fr
CASTEP
CASTEP/en
CASTEP/fr
CC-Cloud
CC-Cloud/Maintenance
CC-Cloud/fr
CC-Cloud Resources
CC-Cloud Resources/fr
CESM
CFD
CFOUR
CFOUR/en
CFOUR/fr
CMake
CMake/en
CMake/fr
COMSOL
COMSOL/en
COMSOL/fr
COVID
COVID19 related requests
COVID19 related requests/en
COVID19 related requests/fr
CP2K
CP2K/en
CP2K/fr
CPLEX
CPLEX/en
CPLEX/fr
CPMD
CPMD/en
CPMD/fr
CUDA
CUDA/en
CUDA/fr
CUDA tutorial
CUDA tutorial/en
CUDA tutorial/fr
CVMFS
CVMFS/en
CVMFS/fr
Cedar
Cedar/en
Cedar/fr
Cellranger
CephFS
CephFS/en
CephFS/fr
Changing username
Chapel
Chapel/en
Chapel/fr
CheckV/en
CirQ
CirQ/en
CirQ/fr
Classiq
Cloud
Cloud/en
Cloud/fr
Cloud Account Lifecycle Management
Cloud Images
Cloud Images/fr
Cloud Quick Start
Cloud Quick Start/en
Cloud Quick Start/fr
Cloud RAS Allocations
Cloud RAS Allocations/en
Cloud RAS Allocations/fr
Cloud Technical Glossary
Cloud Technical Glossary/en
Cloud Technical Glossary/fr
Cloud resources
Cloud resources/en
Cloud resources/fr
Cloud shared security responsibility model
Cloud shared security responsibility model/en
Cloud shared security responsibility model/fr
Cloud storage options
Cloud storage options/en
Cloud storage options/fr
Cloud troubleshooting guide
Cloud troubleshooting guide/en
Cloud troubleshooting guide/fr
Clusterstats
Comet.ml
Comet.ml/en
Comet.ml/fr
Computational chemistry
Computational chemistry/en
Computational chemistry/fr
Computational fluid dynamics
Computational fluid dynamics/en
Computational fluid dynamics/fr
Compute Canada Documentation
Compute Canada Documentation/fr
Compute Canada Wiki
Compute Canada Wiki/fr
Conda
Configuring Apache to use SSL
Configuring Apache to use SSL/en
Configuring Apache to use SSL/fr
Configuring WSL as a ControlMaster relay server
Configuring WSL as a ControlMaster relay server/en
Configuring WSL as a ControlMaster relay server/fr
Configuring a data or web server
Configuring a data or web server/en
Configuring a data or web server/fr
Connecting with MobaXTerm
Connecting with MobaXTerm/en
Connecting with MobaXTerm/fr
Connecting with PuTTY
Connecting with PuTTY/en
Connecting with PuTTY/fr
Creating a Linux VM
Creating a Webserver on CC-Cloud
Creating a Webserver on CC Cloud
Creating a Windows VM
Creating a web server on a cloud
Creating a web server on a cloud/en
Creating a web server on a cloud/fr
Cryosparc
Cybersecurity: Personal computer health check
Cybersecurity: Personal computer health check/en
Cybersecurity: Personal computer health check/fr
Cybersecurity Basics/Health Check
Cybersecurity for your personal computer
Cybersecurity for your personal computer/en
Cybersecurity for your personal computer/fr
DBaaS/en
DDT
DL POLY
DL POLY/en
DL POLY/fr
DMTCP
DMTCP/en
Dalton
Dalton/en
Dalton/fr
Dar
Dar/en
Dar/fr
Dask
Dask/en
Dask/fr
Data Management
Data Management at Niagara
Data backup and restoration
Data management at Niagara
Data management at Trillium
Data management at Trillium/en
Data management at Trillium/fr
Data protection, privacy, and confidentiality
Data protection, privacy, and confidentiality/en
Data protection, privacy, and confidentiality/fr
Data transfer
Database servers
Database servers/en
Database servers/fr
Debugging and profiling
Debugging and profiling/en
Debugging and profiling/fr
Dedalus
Dedalus/en
Dedalus/fr
Deepspeed
Delft3D
Diskusage Explorer
Diskusage Explorer/en
Diskusage Explorer/fr
DummyWheel
DummyWheel/en
DummyWheel/fr
EasyBuild
EasyBuild/en
EasyBuild/fr
Environnements logiciels standards
Estimer et prévenir le gaspillage des ressources
FAQ
FDTD Solutions
FEniCS
FEniCS/en
FEniCS/fr
FMRIPrep
FMRIPrep/en
FMRIPrep/fr
FS Quotas
FS quotas
FTP server in CC-Cloud
FTP server in the Cloud
FTP server in the Cloud/en
FTP server in the Cloud/fr
Faiss
Faiss/en
Faiss/fr
FastTree
FastTree/en
FastTree/fr
File transfer
Files of leaving sponsored users
Filesystem
Fir
Fir/en
Fir/fr
Firedrake
Flax
Fluent
Formation
Fortran
Fortran/en
Fortran/fr
FreeSurfer
FreeSurfer/en
FreeSurfer/fr
Frequently Asked Questions
Frequently Asked Questions/en
Frequently Asked Questions/fr
Frequently Asked Questions about the CCDB
Frequently Asked Questions about the CCDB/en
Frequently Asked Questions about the CCDB/fr
GAMESS
GAMESS-US
GAMESS-US/en
GAMESS-US/fr
GATK
GATK/en
GATK/fr
GBD page
GBrowse
GBrowse/en
GBrowse/fr
GCC C++ Dual ABI
GCC C++ Dual ABI/en
GCC C++ Dual ABI/fr
GDAL
GDAL/en
GDAL/fr
GDB
GDB/en
GDB/fr
GIS
GIS/en
GIS/fr
GLOST
GLOST/en
GLOST/fr
GNU Parallel
GNU Parallel/en
GNU Parallel/fr
GP3
GP4
GPAW
GPAW/en
GPAW/fr
GROMACS
GROMACS/en
GROMACS/fr
Galaxy
Galaxy/en
Galaxy/fr
Gaussian
Gaussian/en
Gaussian/fr
Gaussian error messages
Gaussian error messages/en
Gaussian error messages/fr
General directives for migration
General directives for migration/en
General directives for migration/fr
Generating SSH keys in Windows
Generating SSH keys in Windows/en
Generating SSH keys in Windows/fr
Geographic Information Systems
Geographic information systems
Getting Started
Getting Started/fr
Getting started
Getting started/en
Getting started/fr
Getting started with the new national systems
Getting started with the new national systems/en
Getting started with the new national systems/fr
Git
Git/en
Git/fr
Globus
Globus/en
Globus/fr
Globus Command Line Interface
Gnu Parallel
Gnu Parallel/en
Gnu Parallel/fr
Gprof
Gprof/en
Gprof/fr
Graham
Graham/en
Graham/fr
Graham Cloud
Guide ML
Guide de démarrage
Gurobi
Gurobi/en
Gurobi/fr
HDF5
HDF5/en
HDF5/fr
HPC4Health
HPC4Health/en
HPC4Health/fr
Ha fip
Handling large collections of files
Handling large collections of files/en
Handling large collections of files/fr
Helios
Helios/en
How to obtain the list of users in a PAICE tier
Huggingface
Humanities
Humanities and Social Sciences
Humanities and Social Sciences/en
Humanities and Social Sciences/fr
Hyper-Q / MPS
Hyper-Q / MPS/en
Hyper-Q / MPS/fr
Hélios
Hélios/en
Hélios/fr
ImageNet
Including a command within the wiki
Including a command within the wiki/en
Including a command within the wiki/fr
Including a source code file within the wiki
Including a source code file within the wiki/en
Including a source code file within the wiki/fr
Including source code within the wiki
Including source code within the wiki/en
Including source code within the wiki/fr
Infrastructure for Research Data Management
Infrastructure renewal
Infrastructure renewal/en
Infrastructure renewal/fr
Infrastructure renewal completed events
Infrastructure renewal completed events/en
Infrastructure renewal completed events/fr
Installing software in your home directory
Installing software in your home directory/en
Installing software in your home directory/fr
Interpretable AI
Java
Java/en
Java/fr
Job arrays
Job arrays/en
Job arrays/fr
Job scheduling
Job scheduling policies
Job scheduling policies/en
Job scheduling policies/fr
Julia
Julia/en
Julia/fr
Jupyter
Jupyter/en
Jupyter/fr
JupyterHub
JupyterHub/en
JupyterHub/fr
JupyterLab
JupyterLab/en
JupyterLab/fr
JupyterLab fr
JupyterNotebook
JupyterNotebook/en
JupyterNotebook/fr
Kentutils
Keras
Keras/en
Keras/fr
Killarney
Killarney/en
Killarney/fr
LAMMPS
LAMMPS/en
LAMMPS/fr
LP
LS-DYNA
LS-DYNA/en
LS-DYNA/fr
Large Language Models (LLMs)
Large Scale Machine Learning (Big Data)
Large Scale Machine Learning (Big Data)/en
Large Scale Machine Learning (Big Data)/fr
LibTorch
Libtorch
Linux introduction
Linux introduction/en
Linux introduction/fr
Lmod
Lumerical
Lumerical/en
Lumerical/fr
MAFFT
MAFFT/en
MAFFT/fr
MATLAB
MATLAB/en
MATLAB/fr
META-Farm
META-Farm/en
META-Farm/fr
META-Farm: Advanced features and troubleshooting
META-Farm: Advanced features and troubleshooting/en
META-Farm: Advanced features and troubleshooting/fr
META: A package for job farming
META: Advanced features and troubleshooting
META package for serial farming
ME modelling
MFA
MIG
MIKE
MIKE/en
MIKE/fr
ML Performance Guide
MLflow
MPI
MPI-IO
MPI-IO/en
MPI-IO/fr
MPI/en
MPI/fr
MPI4py
MPI4py/en
MPI4py/fr
MRCC
MRCC/en
MRCC/fr
MXNet
MXNet/en
MXNet/fr
Machine Learning tutorial
Make
Make/en
Make/fr
Managing Slurm accounts
Managing Slurm accounts/en
Managing Slurm accounts/fr
Managing your Linux VM
Managing your Linux VM/en
Managing your Linux VM/fr
Managing your cloud resources with OpenStack
Managing your cloud resources with OpenStack/en
Managing your cloud resources with OpenStack/fr
Materials Studio
Materials Studio/en
Materials Studio/fr
Mathematica
Matlab
Matlab/en
Matlab/fr
Meltdown and Spectre bugs
Meltdown and Spectre bugs/en
Meltdown and Spectre bugs/fr
MetaPhlAn
MetaPhlAn/en
MetaPhlAn/fr
Metrix
Metrix/en
Metrix/fr
Migrating between clusters
Migrating between clusters/en
Migrating between clusters/fr
Migration2016
Migration2016/fr
Migration2016:First Announcement 8Aug2016
Migration2016:Jasper Hungabee Migration 2016
Migration2016:Migrating to SFU Storage
Migration2016:Migrating to Waterloo Storage
Migration2016:National Data Cyberinfrastructure
Migration2016:New Systems/fr
Migration2016:New systems/fr
Migration2016:Recommendations for Migration to New Systems
Migration to the new standard environment
Migration to the new standard environment/en
Migration to the new standard environment/fr
Migration vers l environnement standard 2020
Migration vers l’environnement standard 2020
Mii
Mii/en
Mii/fr
Mist
Mist/en
Mist/fr
Modules
Modules/en
Modules/fr
Modules avx
Modules avx2
Modules avx512
Modules specific to Niagara
Modules sse3
MonarQ
MonarQ/en
MonarQ/en-ca
MonarQ/fr
Monarq
Monitoring jobs
Monitoring jobs/en
Monitoring jobs/fr
Moose
Moose/en
Moose/fr
Mounting /project space on a VM in the cloud
Mounting /project space on a VM in the cloud/en
Mounting /project space on a VM in the cloud/fr
Mp2
Mp2/en
Mp2/fr
MrBayes
MrBayes/en
MrBayes/fr
MuJoCo
MuJoCo/en
MuJoCo/fr
Mujoco
Multi-Instance GPU
Multi-Instance GPU/en
Multi-Instance GPU/fr
Multifactor authentication
Multifactor authentication/
Multifactor authentication/en
Multifactor authentication/f
Multifactor authentication/fr
NAMD
NAMD/en
NAMD/fr
NBO
NCCL
NDC
NVTOP
NVTOP/en
NVTOP/fr
Narval
Narval/en
Narval/fr
National systems
National systems/en
National systems/fr
Nearline
NetCDF
NetCDF/en
NetCDF/fr
Nextcloud
Nextcloud/en
Nextcloud/fr
Nextflow
Nextflow/en
Nextflow/fr
Nibi
Nibi/en
Nibi/fr
Nibi Cloud
Nvprof
ORCA
ORCA/en
ORCA/fr
Octave
OpenACC
OpenACC Tutorial
OpenACC Tutorial/en
OpenACC Tutorial/fr
OpenACC Tutorial - Adding directives
OpenACC Tutorial - Adding directives/en
OpenACC Tutorial - Adding directives/fr
OpenACC Tutorial - Data movement
OpenACC Tutorial - Data movement/en
OpenACC Tutorial - Data movement/fr
OpenACC Tutorial - Introduction
OpenACC Tutorial - Introduction/en
OpenACC Tutorial - Introduction/fr
OpenACC Tutorial - Optimizing loops
OpenACC Tutorial - Optimizing loops/en
OpenACC Tutorial - Optimizing loops/fr
OpenACC Tutorial - Profiling
OpenACC Tutorial - Profiling/en
OpenACC Tutorial - Profiling/fr
OpenCV
OpenCV/en
OpenCV/fr
OpenFOAM
OpenFOAM/en
OpenFOAM/fr
OpenMM
OpenMM/en
OpenMM/fr
OpenMP
OpenMP/en
OpenMP/fr
OpenMolcas
OpenSim
OpenStack
OpenStack Command Line Clients
OpenStack VM Setups/en
OpenStack command line clients
OpenStack command line clients/en
OpenStack command line clients/fr
OpenStack dashboard GUI
Open Babel
Open Babel/en
Open Babel/fr
Open OnDemand
Open OnDemand/en
Open OnDemand/fr
Optuna
Ordonnancement
Ordonnanceur
PAICE Allocations and compute scheduling
PGPROF
PGPROF/en
PGPROF/fr
Page translation
Page translation/en
Page translation/fr
ParaView
ParaView/en
ParaView/fr
Parabricks
Parabricks/en
Parabricks/fr
Parallel
Parallel Debugging with DDT
Parallel I/O introductory tutorial
Parallel I/O introductory tutorial/en
Parallel I/O introductory tutorial/fr
Parasail
Parasail/en
Parasail/fr
PennyLane
PennyLane/en
PennyLane/fr
Perl
Perl/en
Perl/fr
Persistent Services In The Cloud
Pgdbg
Pgdbg/en
Pgdbg/fr
Points de contrôle
Points de contrôle/en
Points de contrôle/fr
Policy
Portail
Programming guide
Programming guide/en
Programming guide/fr
Project Layout
Project layout
Project layout/en
Project layout/fr
Prolonging terminal sessions
Prolonging terminal sessions/en
Prolonging terminal sessions/fr
Pthreads
Pthreads/en
Pthreads/fr
PyKeOps
PyKeOps/en
PyKeOps/fr
PyRETIS
PyRETIS/en
PyRETIS/fr
PyTorch
PyTorch/en
PyTorch/fr
Python
Python/en
Python/fr
Python wheels
Pytorch
QGIS
QIIME
QIIME/en
QIIME/fr
Qiskit
Qiskit/en
Qiskit/fr
QuantumATK
QuantumATK/en
QuantumATK/fr
Quantum ESPRESSO
Quantum ESPRESSO/en
Quantum ESPRESSO/fr
Quantum computing services
Quota
R
R-INLA
R-INLA/en
R-INLA/fr
R/en
R/fr
RAC
RAC Annual Reports
RAC Annual Reports/en
RAC Annual Reports/fr
RAC FAQ
RAC FAQ/en
RAC FAQ/fr
RAC Fast Track Application Guide
RAC Fast Track Application Guide/en
RAC Fast Track Application Guide/fr
RAC application guide
RAC application guide/en
RAC application guide/fr
RAC available resources
RAC available resources/en
RAC available resources/fr
RAC transition FAQ
RAC transition FAQ/en
RAC transition FAQ/fr
RAPIDS
RAPIDS/en
RAPIDS/fr
RDKit
RDKit/en
RDKit/fr
RDM
README files
README files/en
README files/fr
RPP Annual Progress Report Guidelines
RPP Annual Progress Report Guidelines/en
RPP Annual Progress Report Guidelines/fr
Rapid Access Service
Rapid Access Service/en
Rapid Access Service/fr
Ray
Recent changes to the software environment
Recovering data from a compromised VM
Recovering data from a compromised VM/en
Recovering data from a compromised VM/fr
Research Data Management
Research Data Management/Infrastructure
Research Data Management/en
Research Data Management/fr
Resource Allocation Competition
Resource Allocation Competition/en
Resource Allocation Competition/fr
Resources for Research Data Management
Rorqual
Rorqual/en
Rorqual/fr
Running MPI jobs with SLURM
Running jobs
Running jobs/en
Running jobs/fr
Rust
Rust/en
Rust/fr
SAIGE
SAIGE/en
SAIGE/fr
SAS
SFTP
SLURM
SQLite
SQLite/en
SQLite/fr
SSH
SSH/en
SSH/fr
SSH Keys
SSH Keys/en
SSH Keys/fr
SSH changes
SSH configuration file
SSH configuration file/en
SSH configuration file/fr
SSH host keys
SSH host keys/en
SSH host keys/fr
SSH security improvements
SSH security improvements/en
SSH security improvements/fr
SSH tunnelling
SSH tunnelling/en
SSH tunnelling/fr
Samtools
Samtools/en
Samtools/fr
Scalability
Scalability/en
Scalability/fr
Scheduler
Scheduling
Scratch purging policy
Scratch purging policy/en
Scratch purging policy/fr
Securing your account
Securing your account/en
Securing your account/fr
Security considerations when running a VM
Security considerations when running a VM/en
Security considerations when running a VM/fr
Security corrections for virtual machines
Self-paced courses
Self-paced courses/en
Self-paced courses/fr
Services d'informatique quantique
Services d'informatique quantique/en
Services d'informatique quantique/fr
Setting up GUI Desktop on a VM
Setting up GUI Desktop on a VM/en
Setting up GUI Desktop on a VM/fr
Setup a data or web server
Sharing data
Sharing data/en
Sharing data/fr
Siku
Singularity
Singularity/fr
Slicer
Slicer/en
Slicer/fr
Snowflurry
Snowflurry/en
Snowflurry/fr
Soutien technique
SpaCy
SpaCy/en
SpaCy/fr
Spark
Standard software environments
Standard software environments/en
Standard software environments/fr
Star-CCM+
Star-CCM+/en
Star-CCM+/fr
StarCCM
Stata
Storage and file management
Storage and file management/en
Storage and file management/fr
Structure
Structure/en
Structure/fr
SubatomicPhysics
SubatomicPhysics/en
SubatomicPhysics/fr
Symbolic algebra software
Symbolic algebra software/en
Symbolic algebra software/fr
System status
System status/en
System status/fr
Systems overview
TENSORFLOW
TamIA
TamIA/en
TamIA/fr
Tamia
Tar
Tar/en
Tar/fr
Technical Glossary for the Resource Allocation Competitions
Technical Glossary for the Resource Allocation Competitions/fr
Technical Support
Technical documentation
Technical documentation/en
Technical documentation/fr
Technical glossary for resource allocation competitions
Technical glossary for the resource allocation competitions
Technical glossary for the resource allocation competitions/en
Technical glossary for the resource allocation competitions/fr
Technical support
Technical support/en
Technical support/fr
TensorFlow
TensorFlow/en
TensorFlow/fr
Tensorboard
Tensorboard/en
Tensorboard/fr
Tensorflow
Tensorflow/fr
Terminology
Terraform
Terraform/en
Terraform/fr
Tesseract
Test-moderation
Test-syntax
Test12
TestPage
Testing With Graphics
Torch
Torch/en
Torch/fr
Transferring data
Transferring data/en
Transferring data/fr
Transferring files
Transferring files with Aspera Connect/ascp
Transferring files with Aspera Connect/ascp/en
Transferring files with Aspera Connect/ascp/fr
Transition from Niagara to Trillium
Transition from Niagara to Trillium/en
Transition from Niagara to Trillium/fr
Transpileur quantique
Transpileur quantique/en
Transpileur quantique/fr
Trillium
Trillium/en
Trillium/fr
Trillium Open OnDemand Quickstart
Trillium Open OnDemand Quickstart/en
Trillium Open OnDemand Quickstart/fr
Trillium Quickstart
Trillium Quickstart/en
Trillium Quickstart/fr
Tuning Lustre
Tuning Lustre/en
Tuning Lustre/fr
Tutoriel Apprentissage machine
Tutoriel Apprentissage machine/en
Tutoriel Apprentissage machine/fr
User roles to access resources and services of the Alliance Federation
User roles to access resources and services of the Alliance Federation/en
User roles to access resources and services of the Alliance Federation/fr
Using $SLURM TMPDIR
Using Conda in Apptainer
Using Conda in Apptainer/en
Using Conda in Apptainer/fr
Using GPUs with SLURM
Using GPUs with Slurm
Using GPUs with Slurm/en
Using GPUs with Slurm/fr
Using Nix
Using Nix: nix-env
Using SSH keys in Linux
Using SSH keys in Linux/en
Using SSH keys in Linux/fr
Using Terraform
Using a RAC
Using a new empty volume on a Linux VM
Using a new empty volume on a Linux VM/en
Using a new empty volume on a Linux VM/fr
Using a new empty volume on a Windows VM
Using a resource allocation
Using a resource allocation/en
Using a resource allocation/fr
Using cloud GPUs
Using cloud gpu
Using cloud vGPUs
Using cloud vGPUs/en
Using cloud vGPUs/fr
Using ipv6 in cloud
Using ipv6 in cloud/en
Using ipv6 in cloud/fr
Using modules
Using nearline storage
Using nearline storage/en
Using nearline storage/fr
Using node-local storage
Using node-local storage/en
Using node-local storage/fr
Using swift
Utiliser des GPUs avec Slurm
Utiliser des modules
Utiliser des modules/en
Utiliser des modules/fr
Utiliser les modules
Uv
Uv/en
Uv/fr
VASP
VASP/en
VASP/fr
VLLM
VMD
VMD/en
VMD/fr
VM Best Practices
VM Best Practices/en
VM Best Practices/fr
VM recovery via cloud console
VM recovery via cloud console/en
VM recovery via cloud console/fr
VMsProjectAccess
VNC
VNC/en
VNC/fr
VTK
VTK/en
VTK/fr
Valgrind
Valgrind/en
Valgrind/fr
Vector
Version control
Version control/en
Version control/fr
VirSorter2
VirSorter2/en
VirSorter2/fr
Virtual machine flavors
Virtual machine flavors/en
Virtual machine flavors/fr
Virtualenv
VisIt
VisIt/en
VisIt/fr
Visual Studio Code
Visual Studio Code/en
Visual Studio Code/fr
Visualization
Visualization/en
Visualization/fr
VoxCeleb
Vtune
Vtune/en
Vtune/fr
Vulcan
Vulcan/en
Vulcan/fr
WRF
WRF/en
WRF/fr
Weights & Biases (wandb)
Weights & Biases (wandb)/en
Weights & Biases (wandb)/fr
What is a scheduler?
What is a scheduler?/en
What is a scheduler?/fr
Wheels
Wheels2.7
Wheels3.10
Wheels3.11
Wheels3.12
Wheels3.13
Wheels3.14
Wheels3.5
Wheels3.6
Wheels3.7
Wheels3.8
Wheels3.9
Windows Subsystem for Linux (WSL)
Windows Subsystem for Linux (WSL)/en
Windows Subsystem for Linux (WSL)/fr
Working with VMs
Working with VMs/en
Working with VMs/fr
Working with images
Working with images/en
Working with images/fr
Working with processors that have non-uniform memory access (NUMA)
Working with volumes
Working with volumes/en
Working with volumes/fr
X2go
Yt
Yt/en
Yt/fr
Zfs
ÉcoleCQ2019
Événements passés
⧼sidebar-available-software-link⧽
⧼sidebar-trillium-link⧽
Talk:ADF
Talk:A tutorial on 'tar'
Talk:Abaqus
Talk:Accessing CVMFS
Talk:Advanced MPI scheduling
Talk:Advanced MPI scheduling/fr
Talk:Apache Spark
Talk:Archiving and compressing files
Talk:Backing up your VM
Talk:Béluga/en
Talk:CC-Cloud
Talk:CC-Cloud Resources
Talk:CMake
Talk:Cedar
Talk:Cloud
Talk:Cloud Quick Start
Talk:Compute Canada Wiki
Talk:Configuring Apache to use SSL
Talk:Configuring a data or web server
Talk:Creating a Linux VM
Talk:Creating a Webserver on CC-Cloud
Talk:Creating a Windows VM
Talk:Database servers
Talk:GAMESS-US
Talk:GROMACS
Talk:Gaussian
Talk:Globus
Talk:Glost
Talk:Gnu Parallel
Talk:Handling large collections of files
Talk:Job arrays
Talk:Jupyter
Talk:JupyterNotebook
Talk:Known issues
Talk:MATLAB
Talk:MPI
Talk:Main Page
Talk:Make
Talk:Migration2016
Talk:Migration2016:Silo
Talk:NAMD
Talk:Nextflow
Talk:Niagara
Talk:ORCA
Talk:OpenACC Tutorial - Adding directives
Talk:OpenFOAM
Talk:OpenMP
Talk:OpenStack
Talk:OpenStack VM Setups
Talk:Programming Guide
Talk:Python
Talk:R
Talk:Running MPI jobs with SLURM
Talk:Running jobs
Talk:SSH
Talk:SSH Keys
Talk:Scalability
Talk:Sharing data
Talk:Singularity
Talk:Storage and file management
Talk:Tensorflow
Talk:Utiliser des modules
Talk:Utiliser des modules/en
Talk:VASP
Talk:WestGrid Legacy Systems Migration
Talk:Zfs
User:Andrp
User:Berberov
User:Cgeroux
User:Fm
User:Gbnewby
User:Kerrache
User:Knewson
User:Mboisson
User:Moonj
User:Nathanw
User:Pjmann
User:Ppomorsk
User:Ppomorsk/AiiDA
User:Ppomorsk/Graham2 draft
User:Rozmanov
User:Skhan
User:Stuekero
User:Stuekero/BEAST
User:Stuekero/Firedrake
User:Stuekero/GROMACS
User:Stuekero/Julia
User:Stuekero/LAMMPS
User:Stuekero/Lumerical
User:Stuekero/MIKE
User:Stuekero/StarCCM
User talk:Alarouch
User talk:Cgeroux
User talk:Diane27
User talk:Sergiy
File:0-guided analysis.png
File:1-guided analysis.png
File:10 dernières tâches Sommaire Utilisateur.png
File:1 CPU.png
File:1st-panel.png
File:2-guided analysis.png
File:2.png
File:3-guided analysis.png
File:3.png
File:32 CPU not fully used multithread.png
File:4-guided analysis.png
File:600px-Vidyo login.png
File:8 CPU using 1.png
File:Access Systems-fr.png
File:Access Systems.png
File:Accessing CC Compute and Storage Environment.pdf
File:AccountAgreement-FR.png
File:Account application en.png
File:Account application fr.png
File:Account details en.png
File:Account details fr.png
File:Add-Rule-Button-FR.png
File:Add-Rule-Button.png
File:Add-Rule-Form-FR.png
File:Add-Rule-Form-RDP.png
File:Add-Rule-Form.png
File:Add Allowed Address Pair.png
File:Ansys CFX launcher.png
File:Ansys EDT launcher.png
File:Ansys Fluent launcher.png
File:Ansys Fluent web launcher.png
File:Ansys Mapdl launcher.png
File:Ansys Workbench launcher.png
File:Apache2-test-page.png
File:Aperçu de la page d'accueil du portail.png
File:Application used CPU.png
File:Application utilisé compte GPU.png
File:ArbutusObjectStorageBucketKeys.png
File:ArbutusS3Endpoint.png
File:Bande passante-GPU.png
File:Bande passante disque cloud.png
File:Bande passante réseau cloud.png
File:Batch201503.pdf
File:Bell Circuit CirQ.png
File:Bell Graph.png
File:Bell Graph CirQ.png
File:Benchmark-DM.png
File:Benchmark2-DM.png
File:Block grid.png
File:Block grid copy.png
File:Block threadin model.png
File:Block threadin model copy.png
File:CCDB MFA prompt.png
File:CCDB Yubikeys.png
File:CCDB registration EN.png
File:COMSOL launcher.png
File:CPU compte GPU.png
File:CPU job array.png
File:CPU multifil.png
File:CPU pas utilisé.png
File:CPU ressources utilisés détails.png
File:CPU série.png
File:Capture d’écran, le 2024-09-26 à 10.49.16.png
File:Cc service add member success screen.png
File:Cc service management screen.png
File:Cc services screen.png
File:Ccdb-keys-fig1-FR.png
File:Ccdb-keys-fig1.png
File:Ccdb-keys-fig2-B-FRN.png
File:Ccdb-keys-fig2-FRN.png
File:Ccdb-keys-fig2.png
File:Ccdb-keys-fig3-FRN.png
File:Ccdb-keys-fig3.png
File:Ccdb registration fr.png
File:Ccdb view use by compute resource.png
File:Ccdb view use by compute resource fr.png
File:Ccdb view use by compute resource monthly.png
File:Ccdb view use by compute resource monthly fr.png
File:Ccdb view use by compute resource monthly proj edit.png
File:Ccdb view use by compute resource monthly proj fr edit.png
File:Ccdb view use by submitter summary edit.png
File:Ccdb view use by submitter summary fr edit.png
File:Ccdb view use by submitter user edit.png
File:Ccdb view use by submitter user fr edit.png
File:Cephfs config.png
File:Cephfs created.png
File:Classiq terminal browser.png
File:Cloud docs reorganize.pdf
File:Cloud shared security responsibility model.png
File:Cluster.png
File:Coeur CPU Mémoire.png
File:Coeur CPU gaspillé.png
File:Coeur CPU gaspillé compte GPU.png
File:Coeurs CPU.png
File:Commande de soumission-2.png
File:Commande de soumission-3.png
File:Commande de soumission-GPU.png
File:Commande de soumission.png
File:Common mistakes to avoid.pdf
File:Composer.png
File:Composer3.png
File:Confirm.png
File:Confirm user en.png
File:Confirm user fr.png
File:Console.png
File:Contiguous.png
File:Core equivalent diagram GP.png
File:Cpu multiprocesseur cpu-per-task-2.png
File:Create-Key-Pair-Button-FR.png
File:Create-Key-Pair-Button.png
File:Create-Key-Pair-Form-FR.png
File:Create-Key-Pair-Form.png
File:Create-Volume-Button.png
File:Create-Volume-Form-FRN.png
File:Create-Volume-Form.png
File:Creating a volume EN.png
File:Creating a volume FR.png
File:Cuda-blocks-parallel.png
File:Cuda-threads-blocks.png
File:Cuda threads.png
File:Cvc1 fr.png
File:Cvc2 fr.png
File:Cvc4 fr.png
File:Cvc5 fr.png
File:Cvc6 fr.png
File:Cvc7 fr.png
File:CyberDuck configuration for multifactor authentication.png
File:CyberduckFRN.png
File:DDT-VNC-1.png
File:DDT-VNC-2.png
File:DDdt wiki1.png
File:DDdt wiki10.png
File:DDdt wiki11.png
File:DDdt wiki12.png
File:DDdt wiki13.png
File:DDdt wiki14.png
File:DDdt wiki15.png
File:DDdt wiki16.png
File:DDdt wiki17.png
File:DDdt wiki18.png
File:DDdt wiki19.png
File:DDdt wiki2.png
File:DDdt wiki20.png
File:DDdt wiki21.jpg
File:DDdt wiki3.png
File:DDdt wiki4.png
File:DDdt wiki5.png
File:DDdt wiki6.png
File:DDdt wiki7.png
File:DDdt wiki8.png
File:DDdt wiki9.png
File:DRAC-Shibboleth-Login-Fr.png
File:DRAC-Shibboleth-Login.png
File:DWB META.png
File:Dashboard.png
File:Dbaas-ca.pem.zip
File:Ddt wiki1.png
File:Ddt wiki10.png
File:Ddt wiki11.png
File:Ddt wiki12.png
File:Ddt wiki13.png
File:Ddt wiki14.png
File:Ddt wiki15.png
File:Ddt wiki16.png
File:Ddt wiki17.png
File:Ddt wiki18.png
File:Ddt wiki19.png
File:Ddt wiki2.png
File:Ddt wiki20.png
File:Ddt wiki21.jpg
File:Ddt wiki3.png
File:Ddt wiki4.png
File:Ddt wiki5.png
File:Ddt wiki6.png
File:Ddt wiki7.png
File:Ddt wiki8.png
File:Ddt wiki9.png
File:Default security group EN.jpg
File:Default security group EN.png
File:Default security group FR.png
File:Default security group rules en.png
File:Default security group rules fr.jpg
File:Default security group rules fr.png
File:Demander trop de mémoire.png
File:Desktop launchers.png
File:Details tab.png
File:Details tab fr.png
File:Diskaccess.png
File:Diskaccess2.png
File:Diskaccess3.png
File:Duc gui navigation.gif
File:Duc gui navigation.gif.gif
File:Duo-mobile-add-account.png
File:Duo-mobile-app-icon.png
File:Duo-mobile-option-en.png
File:Duo-mobile-option.png
File:Duo-mobile-scan-qr-code.png
File:Détail de la tâche.png
File:Détails sur la tâche-2.png
File:Détails sur la tâche.png
File:Eclipse256.png
File:Eclipse32.png
File:Eclipse48.png
File:EquivalentC1.png
File:EquivalentCoeur.png
File:EquivalentG1.png
File:Equivalent coeur1 2.png
File:EquivalentsG1.5 (memoire).png
File:EquivalentsG1.66 (coeurs).png
File:EquivalentsG2.6 V100-32gb.png
File:EquivalentsG2 (GPUs).png
File:EquivalentsG4 A100-40gb.png
File:Espace utilisé.png
File:Espace utilisé sur le disque local.png
File:ExampleGPUMemory.png
File:ExampleGPUPower.png
File:ExampleGPUUtilisation.png
File:Explora-icon.png
File:FINAL FRN Flowchart SSHD changes - Summer 2019 - v1.4.jpg
File:FINAL Flowchart SSHD changes - Summer 2019 - v1.4.jpg
File:FINAL Flowchart SSHD changes - Summer 2019 - v1.4 - Copy.jpg
File:File Systems.pdf
File:File browser.png
File:Find-group-name-EN.png
File:Find-group-name-FR.png
File:Find-group-name-annotated.png
File:Find-group-name.png
File:Fircpulayout.png
File:Firgpulayout.png.png
File:Firsteps16.png
File:Firststeps-select.png
File:Firststeps.png
File:Firststeps16.png
File:Firststeps16 (1).png
File:Firststeps16 (2).png
File:Firststeps48.png
File:Firststeps48 hov.png
File:Firststeps (1).png
File:Flavor tab.png
File:Flavor tab 2.png
File:Flavor tab 2 fr.png
File:Flavor tab fr.png
File:Flavors.png
File:Flavour-1.png
File:Flavour-2.png
File:Flavour-3.png
File:Four RGU equivalents.png
File:Fs nav.png
File:Fs nav (1).png
File:GPU-architecture.png
File:GPU - demander trop de coeurs.png
File:GPU - demander trop de coeurs 2.png
File:GPU active 1 GPU sur 4.png
File:GPU and a half (cores).png
File:GPU and a half (memory).png
File:GPU cycles de calcul utilisé.png
File:GPU equivalent diagram.png
File:GPU gaspillé compte GPU.png
File:GPU graph exemple gaspillage.png
File:GPU power 1 GPU sur 2.png
File:GPU power 1 GPU sur 4.png
File:GPU utilisation 1 gpu sur 2.png
File:GPU utilisé par utilisateur compte GPU.png
File:Gauss NBO 2026 2.pdf
File:Gcp-applet.png
File:General info.pdf
File:Generate Yubikey IDs.png
File:Gephi201603.pdf
File:GetGlobusConnectPersonal.png
File:Getting An Account.pdf
File:Getting An Account FRN.pdf
File:Getting help on Compute Canada (wide 16-9).pdf
File:Globus-Add-Permissions.png
File:Globus-Add-Personal-Endpoint.png
File:Globus-Initiate-Transfer.png
File:Globus-Login-Organization-Fr.png
File:Globus-Login-Organization.png
File:Globus-Select-Endpoint.png
File:Globus-Transfer-Files.png
File:Globus-file-manager.png
File:Globus-select-collection-rorqual.png
File:Globus-select-collection.png
File:Globus CreatingNewGroup-1024x717.png
File:Globus ManagingAccess-1024x745-changed.png
File:Globus ManagingAccess-1024x745.png
File:Globus RemovingSharedEndpoint-1024x322.png
File:Globus SharedEndpoint1-1024x607.png
File:Globus SharedEndpoint2.png
File:Globus SharedEndpoint3-1024x430.png
File:Globus Transfer Sync Options.png
File:Globus button.png
File:Globus launcher.png
File:Globusconnectpersonal.png
File:Gmx-scaling.png
File:Gp3-network-topo.png
File:Graham-interconnect.png
File:Graphs201605.pdf
File:Home.png
File:HostSetting.png
File:Hpc IO.png
File:IOPS, bande passante.png
File:IOPS.png
File:IOPS disque.png
File:Image.png
File:Image FR.png
File:Images-1.png
File:Images-2.png
File:Import-Key-Pair-Button-FR.png
File:Import-Key-Pair-Button.png
File:Import-Key-Pair-Form-FR.png
File:Import-Key-Pair-Form.png
File:Import key pair 2.png
File:Import key pair 2 fr.png
File:Import key pair 3.png
File:Import key pair 3 fr.png
File:Information ordonnanceur-2.png
File:Information ordonnanceur-GPU.png
File:Information ordonnanceur.png
File:Install-globus-connect-personal.png
File:Instancemenu.png
File:Interface menu attach.png.png
File:Intro-DM.png
File:Job-array-mal-configuré-memoire.png
File:Job-array-mal-configuré.png
File:Julia launcher.png
File:Jupyter-session.png
File:Jupyter-submit.png
File:JupyterHub Server Options.png
File:JupyterHub Spawn failed Timeout.png
File:JupyterLab HomeTab.png
File:JupyterLab Launcher Ansys Fluent.png
File:JupyterLab Launcher Desktop.png
File:JupyterLab Launcher Julia.png
File:JupyterLab Launcher LibreQDA.png
File:JupyterLab Launcher OpenRefine.png
File:JupyterLab Launcher Python.png
File:JupyterLab Launcher RStudio.png
File:JupyterLab Launcher Terminal.png
File:JupyterLab Launcher VSCode.png
File:JupyterLab Launcher with modules.png
File:JupyterLab Softwares.png
File:JupyterLab Softwares ScipyStack.png
File:Key pair tab.png
File:Key pair tab fr.png
File:Launch-Instance-Button-FR.png
File:Launch-Instance-Button-Kilo.png
File:Launch-Instance-Button.png
File:Launch-Instance-Form-FR.png
File:Launch-Instance-Form.png
File:LaunchProfiles.png
File:LauncherAdvancedArguments.png
File:LauncherArguments.png
File:LauncherBasicArguments.png
File:LibreQDA launcher icon.png
File:Light-bulb.png
File:Load arrow.png
File:Locks.png
File:Logo comsol blue 1571x143.png
File:MATLAB launcher.png
File:MLflow launcher icon.png
File:MPI 200 cores Running Threads.png
File:MPI 200 cores not used.png
File:MPI IO1.png
File:MPI IO2.png
File:MPI IO3.png
File:MPI IO4.png
File:MPI multifil bien.png
File:MPI multifil pas bon.png
File:Manage-Floating-IP-Associations-Form-FR.png
File:Manage-Floating-IP-Associations-Form.png
File:Manage-Rules-Button-FR.png
File:Manage-Rules-Button.png
File:Manage attachments EN.png
File:Manage attachments FR.png
File:Managing attachments FRN.jpg
File:Managing jobs.pdf
File:Matlab-vnc.png
File:Mauvaise utilisation GPU, au debut seulement.png
File:Mauvaise utilisation GPU seulement a la fin.png
File:Memoire multiprocesseur trop de cpu.png
File:Memoire multithreading.png
File:Memory.png
File:Meta1.png
File:Meta2.png
File:Metrix launcher.png
File:Mlflow.png
File:MobaXterm-VSL-localdriveC.jpg
File:MobaXterm-setup.jpg
File:MobaXterm SSH-browser type.png
File:MobaXterm X11.png
File:MobaXterm basic.png
File:MobaXterm connected.png
File:MobaXterm ssh key.png
File:Mobaxterm ssh.png
File:Mobaxterm ssh2.png
File:Mobaxterm x11.png
File:Motorcycle.jpeg
File:Multiprocesseur 64 coeurs 4 noeuds.png
File:Multiprocesseur memoire.png
File:Multiprocesseur trop coeur -2.png
File:MyAccount-Agreement.png
File:MÉmoire multiprocesseur trop coeur -2.png
File:Mémoire-GPU.png
File:Mémoire.png
File:Mémoire - GPU - MIG potentiel.png
File:Mémoire 1 GPU sur 2.png
File:Mémoire 1 GPU sur 4.png
File:Mémoire GPU.png
File:Mémoire ajustée.png
File:Mémoire cloud.png
File:Mémoire compte.png
File:Mémoire compte GPU.png
File:Mémoire font rouge série.png
File:Mémoire gaspillée.png
File:Mémoire gaspillée GPU.png
File:Mémoire multifil.png
File:Mémoire multiprocesseur cpu-per-task-2.png
File:Mémoire tâche en série.png
File:Mémoire tâche série.png
File:NVTOP.png
File:NVidia Nsight Systems launcher.png
File:Naming-duo-mobile-device-en.png
File:Naming-duo-mobile-device.png
File:Ncurse duc.png
File:Netlist.png
File:Network ports tab.png
File:Network ports tab fr.png
File:Networks tab.png
File:Networks tab fr.png
File:Nextflow2014 big.png
File:Nibi-desktop-running.png
File:Nibi-desktop.png
File:Nibi-jupyterlab.png
File:Not changed co-pi ccv status en.png
File:Not changed screen shot 2021-09-03 at 9.59.00 am.png
File:Not changed update ccv button en.png
File:Nvvp-pic0.png
File:Nvvp-pic1.png
File:ObjectStoragemenu.png
File:Octave launcher.png
File:Ood-active-jobs.png
File:Ood-dashboard.png
File:Ood-desktop-octave.png
File:Ood-file-browser.png
File:Ood-job-composer.png
File:Ood-logo.png
File:Ood-module-browser.png
File:Ood-oc-gpus.png
File:Ood-oc-history.png
File:Ood-oc-job-submit.png
File:Ood-oc-job.png
File:Ood-oc-shortcuts.png
File:Ood-quota-button.png
File:Ood-session-id.png
File:Ood-storage-quotas.png
File:Ood-terminal.png
File:Ood session tab.png
File:OpenRefine launcher icon.png
File:OpenStack-Dashboard-Compute-Overview-FR.png
File:OpenStack-Dashboard-Compute-Overview-fr.png
File:OpenStack-Dashboard-Compute-Overview.png
File:OpenStack-Dashboard-Compute-Volumes-FRN.png
File:OpenStack-Dashboard-Compute-Volumes.png
File:Openacc profiling1.png
File:Optional transfer of file ownership-FR.png
File:Optional transfer of file ownership.png
File:Os-upload-volume-to-image-FRN.png
File:Os-upload-volume-to-image-fr.png
File:Os-upload-volume-to-image.png
File:OspraySlides.pdf
File:PDF button.png
File:ParaView launcher.png
File:Parallel IO.png
File:Parallel rendering.png
File:Parallel rendering2.png
File:Parallel rendering small.png
File:Paraview201602.pdf
File:Paraview201707.pdf
File:Pencil button.png
File:Pennylane Snowflurry-Diagram.png
File:Pennylane Snowflurry-Diagram1.png
File:Pgdbg-source-win.png
File:Pgdbg-toolbar-drop-down-lists.png
File:Pgdbg gui schematic.png
File:Pgdbg gui schematic FRN.png
File:Pgdbg mpi.png
File:Pgprof-pic0.png
File:Pgprof-pic1.png
File:Pgprof-pic2.png
File:Pgprof-pic3.png
File:Pgprof-start-session.png
File:Pgprof-visualizing.png
File:Pgprof2.png
File:Pgprof new0.png
File:Portail Utilisateur vos comptes.png
File:Portail utilisateur 10 dernières tâches.png
File:Portail utilisateur home.png
File:Portail utilisateur project.png
File:Portaill utilisateur scratch.png
File:Process and threads.png
File:Processes and threads-39.png
File:Processes and threads-GPU.png
File:Processes and threads.png
File:Project.png
File:Puissance.png
File:Puissance GPU.png
File:Puissance utilisé.png
File:Putty X11 forwarding.png
File:Putty basic.png
File:Putty ssh key.png
File:Putty username.png
File:Puttygen1.png
File:Puttygen2.png
File:Python gpu.png
File:Python gpu copy.png
File:Python launcher icon.png
File:QGIS launcher.png
File:QGIS window.png
File:QPU.png
File:Qgis window small.png
File:Qiskit counts.png
File:Qubit map.png
File:Qubit map v2.png
File:Question.png
File:RStudio launcher icon.png
File:Record control panel.png
File:Record control panel2.png
File:Regle-securite-default.png
File:Remmina-Ubuntu.png
File:Remote-Desktop-Connection-windows-FRN.png
File:Remote-Desktop-Connection-windows.png
File:Report of RAC 2025 results (EN).pdf
File:Ressource MPI trop de coeur -2.png
File:Ressource du noeud au complet.png
File:Ressource multiprocesseur non multifil.png
File:Ressources-GPU.png
File:Ressources.png
File:Ressources du noeud.png
File:Ressources utilisées détails-2.png
File:Ressources utilisées détails.png
File:Retrieve-instance-password-FR.png
File:Retrieve-instance-password.png
File:Rgu en.png
File:Rgu fr.png
File:Running threads multiprocesseur cpu-per-task-2.png
File:SPMD model.png
File:Scaling plot.png
File:Scanning-CCDB-QR-code.jpg
File:Scratch.png
File:Screen shot 2022-06-15 at 11.55.50 am.png
File:Screen shot 2022-06-20 at 5.20.04 pm.png
File:Screenshot 2026-02-18 at 4.18.02 PM.png
File:Screenshot 2026-02-18 at 4.18.31 PM.png
File:Screenshot 2026-02-18 at 4.41.24 PM.png
File:Screenshot 2026-02-18 at 4.42.38 PM.png
File:Secpol.png
File:Security groups.png
File:Security groups fr.png
File:SelectProfile.png
File:Select CephFS Network.png
File:Select Yubico OTP.png
File:Select view group usage edit.png
File:Select view group usage fr edit.png
File:Serial IO.png
File:Serial IO2.png
File:Setup diag.png
File:Shared responsibilities Cloud FRN.png
File:Show all ports.png
File:Show attached.png
File:Slides.pdf
File:Slurm portal account usage edit.png
File:Slurm portal account usage edit 2.png
File:Slurm portal account usage queued edit.png
File:Slurm portal account usage queued edit 2.png
File:Slurm portal account use cumulative edit.png
File:Slurm portal account use cumulative edit 2.png
File:Slurm portal account use duration edit.png
File:Slurm portal account use duration edit 2.png
File:Slurm portal def rawusage.png
File:Slurm portal hover total plotly edit.png
File:Slurm portal land edit.png
File:Slurm portal legend edit.png
File:Slurm portal parameter panel.png
File:Slurm portal select sys date.png
File:Smp.png
File:Software module selector.png
File:Sommaire utilisateur quotas.png
File:Source tab.png
File:Source tab fr.png
File:Ssh settings change.png
File:Ssh settings default.png
File:Stacks.png
File:StarCCM+ launcher.png
File:Status.png
File:Summary of the Environment.pdf
File:Systeme de fichiers-GPU.png
File:Système de fichier.png
File:Système de fichier -2.png
File:Système de fichier GPU.png
File:Système de fichier compte.png
File:Tableau vos instances.png
File:Tensorboard.png
File:Tensorboard launcher.png
File:Terminal launcher.png
File:Threads attack.png
File:Threads attack copy.png
File:Threads multifil.png
File:Threads multiprocesseur 64 coeurs.png
File:Threads multiprocesseur trop coeur-2.png
File:Threads série.png
File:TigerVNC-GrahamConnect.png
File:TigerVNC-GrahamDesktop.png
File:TigerVNC-GrahamLogin.png
File:TigervncConnectionDetails.PNG
File:TigervncLogin.PNG
File:Tiled multiply.png
File:Tiled multiply copy.png
File:Tons of software.png
File:Tons of software copy.png
File:Train.jpg
File:Trop de coeurs multifil.png
File:Trop de coeurs multifil - copie.png
File:Two.Six RGU equivalents.png
File:Two GPU equivalents.png
File:Two and a half core equivalents.png
File:Two core equivalents.png
File:Tâche GPU pour MIG.png
File:Tâche en cours-2.png
File:Tâches en cours-1.png
File:Untitled presentation.png
File:Updated screen shot 2022-06-08 at 7.34.48 am 1.png
File:Updated screen shot 2022-06-10 at 9.39.40 am.png
File:Upload image from volume EN.png
File:Upload volume from image EN.png
File:Upload volume from image FR.png
File:Utilisation compte GPU détails.png
File:Utilisation du compte.png
File:Utilisation détaillée par utilisateur.png
File:Utilisation en cours.png
File:VASP benchmark ENG.png
File:VM multi user cloud init.png
File:VNCviewerConnect.png
File:VNCviewerConnect2.png
File:VNCviewerConnect3.png
File:VSCode Detail Link.png
File:VSCode SSH Passphrase Prompt.png
File:VS Code launcher icon.png
File:Vasp-GPU-benchmark.pdf
File:Vasp-benchmark.jpg
File:Video button 24.png
File:Vidyo contacts controls.png
File:Vidyo contacts list.png
File:Vidyo control panel.png
File:Vidyo direct call.png
File:Vidyo external.png
File:Vidyo join room.png
File:Vidyo mail invite.jpg
File:Vidyo room status.png
File:Vidyo search contacts.png
File:Vidyo toolbar.png
File:Vipport.png
File:Vipport assoc.png
File:Visit201606.pdf
File:VisitScripting.pdf
File:Visit niagara-01.png
File:Visit niagara-02.png
File:Visit niagara-03.png
File:Volumes EN.png
File:Volumes FR.png
File:Vos tâches bottom-2.png
File:Vos tâches bottom.png
File:Vos tâches top-2.png
File:Vos tâches top.png
File:Vrrp pol.png
File:Vtune mpi profiling report.png
File:Warning sign 16px.png
File:Warning sign 24px.png
File:What is gpu.png
File:What is gpu copy.png
File:What is gpu copy 2.png
File:WinSCP ACL.png
File:WinSCP Configuration.png
File:WinSCP Path Configuration.png
File:WinSCP resolve error.png
File:WinSCP transfers.png
File:Windows-VM-Settings-FR.png
File:Windows-VM-Settings.png
File:Windows-VM-settings-FRN.png
File:Windows-launch-instance.png
File:Windows-launch-instance FRN.png
File:X2go-newsession.png
File:X2go-screen1.png
File:Yubico-Authenticator-Step3.png
File:Yubico-Authenticator-Step4.png
File:Yubico-Authenticator-Step6.png
File:Yubico-Authenticator-Step7.png
File:Yubico Manager OTP.png
File:Yubico Manager OTP configuration.png
MediaWiki:Common.css
MediaWiki:Mainpage
MediaWiki:Mainpage/fr
MediaWiki:Sidebar
MediaWiki:Sidebar-acknowledging-alliance
MediaWiki:Sidebar-acknowledging-alliance-link
MediaWiki:Sidebar-acknowledging-alliance-link/fr
MediaWiki:Sidebar-acknowledging-alliance/fr
MediaWiki:Sidebar-acknowledging-cc
MediaWiki:Sidebar-acknowledging-cc-link
MediaWiki:Sidebar-acknowledging-cc-link/fr
MediaWiki:Sidebar-acknowledging-cc/fr
MediaWiki:Sidebar-alliance
MediaWiki:Sidebar-alliance-main-page
MediaWiki:Sidebar-alliance-main-page-link
MediaWiki:Sidebar-alliance-main-page-link/fr
MediaWiki:Sidebar-alliance-main-page/fr
MediaWiki:Sidebar-alliance-rac-link/fr
MediaWiki:Sidebar-alliance-rac/fr
MediaWiki:Sidebar-alliance/fr
MediaWiki:Sidebar-aup
MediaWiki:Sidebar-aup-link
MediaWiki:Sidebar-aup-link/fr
MediaWiki:Sidebar-aup/fr
MediaWiki:Sidebar-authoring
MediaWiki:Sidebar-authoring/fr
MediaWiki:Sidebar-available-software
MediaWiki:Sidebar-available-software-link
MediaWiki:Sidebar-available-software-link/fr
MediaWiki:Sidebar-available-software/fr
MediaWiki:Sidebar-beluga-link
MediaWiki:Sidebar-beluga-link/en
MediaWiki:Sidebar-beluga-link/fr
MediaWiki:Sidebar-cc-main-page
MediaWiki:Sidebar-cc-main-page-link
MediaWiki:Sidebar-cc-main-page-link/fr
MediaWiki:Sidebar-cc-main-page/fr
MediaWiki:Sidebar-ccdb
MediaWiki:Sidebar-ccdb-link
MediaWiki:Sidebar-ccdb-link/fr
MediaWiki:Sidebar-ccdb/fr
MediaWiki:Sidebar-cedar-link
MediaWiki:Sidebar-cedar-link/fr
MediaWiki:Sidebar-cloud
MediaWiki:Sidebar-cloud-link
MediaWiki:Sidebar-cloud-link/fr
MediaWiki:Sidebar-cloud/fr
MediaWiki:Sidebar-compute-canada
MediaWiki:Sidebar-compute-canada/fr
MediaWiki:Sidebar-fir-link
MediaWiki:Sidebar-fir-link/fr
MediaWiki:Sidebar-getting-an-account
MediaWiki:Sidebar-getting-an-account-link
MediaWiki:Sidebar-getting-an-account-link/fr
MediaWiki:Sidebar-getting-an-account/fr
MediaWiki:Sidebar-getting-started
MediaWiki:Sidebar-getting-started-link
MediaWiki:Sidebar-getting-started-link/fr
MediaWiki:Sidebar-getting-started/fr
MediaWiki:Sidebar-graham-link
MediaWiki:Sidebar-graham-link/fr
MediaWiki:Sidebar-guidelines
MediaWiki:Sidebar-guidelines-link
MediaWiki:Sidebar-guidelines-link/fr
MediaWiki:Sidebar-guidelines/fr
MediaWiki:Sidebar-killarney-link
MediaWiki:Sidebar-killarney-link/fr
MediaWiki:Sidebar-known-issues
MediaWiki:Sidebar-known-issues-link
MediaWiki:Sidebar-known-issues-link/fr
MediaWiki:Sidebar-known-issues/fr
MediaWiki:Sidebar-legacy-resources
MediaWiki:Sidebar-legacy-resources/fr
MediaWiki:Sidebar-mediawiki-help
MediaWiki:Sidebar-mediawiki-help/fr
MediaWiki:Sidebar-messages
MediaWiki:Sidebar-narval-link
MediaWiki:Sidebar-narval-link/en
MediaWiki:Sidebar-narval-link/fr
MediaWiki:Sidebar-niagara-link
MediaWiki:Sidebar-niagara-link/fr
MediaWiki:Sidebar-nibi-link
MediaWiki:Sidebar-nibi-link/fr
MediaWiki:Sidebar-quantum-computing
MediaWiki:Sidebar-quantum-computing-link
MediaWiki:Sidebar-quantum-computing-link/fr
MediaWiki:Sidebar-quantum-computing/fr
MediaWiki:Sidebar-quantum-services
MediaWiki:Sidebar-rac
MediaWiki:Sidebar-rac-link
MediaWiki:Sidebar-rac-link/fr
MediaWiki:Sidebar-rac/fr
MediaWiki:Sidebar-resources
MediaWiki:Sidebar-resources/fr
MediaWiki:Sidebar-rorqual-link
MediaWiki:Sidebar-rorqual-link/fr
MediaWiki:Sidebar-running-jobs
MediaWiki:Sidebar-running-jobs-link
MediaWiki:Sidebar-running-jobs-link/fr
MediaWiki:Sidebar-running-jobs/fr
MediaWiki:Sidebar-software/fr
MediaWiki:Sidebar-storage
MediaWiki:Sidebar-storage-link
MediaWiki:Sidebar-storage-link/fr
MediaWiki:Sidebar-storage/fr
MediaWiki:Sidebar-support
MediaWiki:Sidebar-support/fr
MediaWiki:Sidebar-system-status
MediaWiki:Sidebar-system-status-link
MediaWiki:Sidebar-system-status-link/fr
MediaWiki:Sidebar-system-status/fr
MediaWiki:Sidebar-tamia-link
MediaWiki:Sidebar-tamia-link/fr
MediaWiki:Sidebar-technical-support
MediaWiki:Sidebar-technical-support-link
MediaWiki:Sidebar-technical-support-link/fr
MediaWiki:Sidebar-technical-support/fr
MediaWiki:Sidebar-trillium-link
MediaWiki:Sidebar-trillium-link/fr
MediaWiki:Sidebar-vulcan-link
MediaWiki:Sidebar-vulcan-link/fr
MediaWiki:Sidebar-wiki-main-page
MediaWiki:Sidebar-wiki-main-page/fr
MediaWiki:Top-notice-ns-0
Template:!
Template:(
Template:)
Template:=
Template:Avertissement
Template:Box
Template:Callout
Template:Challenge
Template:Command
Template:Command2
Template:Command Temp
Template:Commande
Template:Commandes
Template:Commandes2
Template:Commands
Template:Commands2
Template:Draft
Template:Draft/en
Template:Draft/fr
Template:Ebauche
Template:Fichier
Template:File
Template:Getready
Template:Infobox Computer
Template:NOINDEX
Template:Note
Template:Objectives
Template:Oldid
Template:Outdated
Template:Outdated/fr
Template:OutdatedStdEnv2020
Template:Panel
Template:Prerequisites
Template:Quote
Template:TOC limit
Template:To Do
Template:TrainingEventRow
Template:TrainingOpportunities
Template:Warning
Template talk:Command
Template talk:Command Temp
Template talk:Commands
Category:AI and Machine Learning
Category:Bioinformatics
Category:BiomolecularSimulation
Category:CC-Cloud
Category:CVMFS
Category:Cloud
Category:ComputationalChemistry
Category:Connecting
Category:Connecting/en
Category:Connecting/fr
Category:Draft
Category:Migration2016
Category:Pages with video links
Category:SLURM
Category:Se connecter
Category:Sergiy
Category:Software
Translations:ABINIT/1/en
Translations:ABINIT/1/fr
Translations:ABINIT/10/en
Translations:ABINIT/10/fr
Translations:ABINIT/11/en
Translations:ABINIT/11/fr
Translations:ABINIT/12/en
Translations:ABINIT/12/fr
Translations:ABINIT/2/en
Translations:ABINIT/2/fr
Translations:ABINIT/3/en
Translations:ABINIT/3/fr
Translations:ABINIT/4/en
Translations:ABINIT/4/fr
Translations:ABINIT/5/en
Translations:ABINIT/5/fr
Translations:ABINIT/6/en
Translations:ABINIT/6/fr
Translations:ABINIT/7/en
Translations:ABINIT/8/en
Translations:ABINIT/8/fr
Translations:ABINIT/9/en
Translations:ABINIT/Page display title/en
Translations:ABINIT/Page display title/fr
Translations:ADF/1/en
Translations:ADF/1/fr
Translations:ADF/10/en
Translations:ADF/10/fr
Translations:ADF/11/en
Translations:ADF/11/fr
Translations:ADF/12/en
Translations:ADF/12/fr
Translations:ADF/13/en
Translations:ADF/13/fr
Translations:ADF/14/en
Translations:ADF/14/fr
Translations:ADF/15/en
Translations:ADF/15/fr
Translations:ADF/16/en
Translations:ADF/16/fr
Translations:ADF/17/en
Translations:ADF/17/fr
Translations:ADF/18/en
Translations:ADF/18/fr
Translations:ADF/19/en
Translations:ADF/19/fr
Translations:ADF/2/en
Translations:ADF/2/fr
Translations:ADF/20/en
Translations:ADF/20/fr
Translations:ADF/21/en
Translations:ADF/21/fr
Translations:ADF/22/en
Translations:ADF/22/fr
Translations:ADF/24/en
Translations:ADF/24/fr
Translations:ADF/26/en
Translations:ADF/26/fr
Translations:ADF/28/en
Translations:ADF/28/fr
Translations:ADF/3/en
Translations:ADF/3/fr
Translations:ADF/30/en
Translations:ADF/30/fr
Translations:ADF/32/en
Translations:ADF/32/fr
Translations:ADF/34/en
Translations:ADF/34/fr
Translations:ADF/35/en
Translations:ADF/35/fr
Translations:ADF/36/en
Translations:ADF/36/fr
Translations:ADF/38/en
Translations:ADF/38/fr
Translations:ADF/4/en
Translations:ADF/4/fr
Translations:ADF/40/en
Translations:ADF/40/fr
Translations:ADF/42/en
Translations:ADF/42/fr
Translations:ADF/44/en
Translations:ADF/44/fr
Translations:ADF/45/en
Translations:ADF/46/en
Translations:ADF/46/fr
Translations:ADF/5/en
Translations:ADF/5/fr
Translations:ADF/6/en
Translations:ADF/6/fr
Translations:ADF/7/en
Translations:ADF/7/fr
Translations:ADF/8/en
Translations:ADF/8/fr
Translations:ADF/9/en
Translations:ADF/9/fr
Translations:ADF/Page display title/en
Translations:ADF/Page display title/fr
Translations:AI and Machine Learning/1/en
Translations:AI and Machine Learning/1/fr
Translations:AI and Machine Learning/10/en
Translations:AI and Machine Learning/10/fr
Translations:AI and Machine Learning/11/en
Translations:AI and Machine Learning/11/fr
Translations:AI and Machine Learning/12/en
Translations:AI and Machine Learning/12/fr
Translations:AI and Machine Learning/13/en
Translations:AI and Machine Learning/13/fr
Translations:AI and Machine Learning/14/en
Translations:AI and Machine Learning/14/fr
Translations:AI and Machine Learning/15/en
Translations:AI and Machine Learning/15/fr
Translations:AI and Machine Learning/16/en
Translations:AI and Machine Learning/16/fr
Translations:AI and Machine Learning/17/en
Translations:AI and Machine Learning/17/fr
Translations:AI and Machine Learning/18/en
Translations:AI and Machine Learning/18/fr
Translations:AI and Machine Learning/19/en
Translations:AI and Machine Learning/19/fr
Translations:AI and Machine Learning/2/en
Translations:AI and Machine Learning/2/fr
Translations:AI and Machine Learning/20/en
Translations:AI and Machine Learning/20/fr
Translations:AI and Machine Learning/21/en
Translations:AI and Machine Learning/21/fr
Translations:AI and Machine Learning/22/en
Translations:AI and Machine Learning/22/fr
Translations:AI and Machine Learning/23/en
Translations:AI and Machine Learning/23/fr
Translations:AI and Machine Learning/24/en
Translations:AI and Machine Learning/24/fr
Translations:AI and Machine Learning/25/en
Translations:AI and Machine Learning/25/fr
Translations:AI and Machine Learning/26/en
Translations:AI and Machine Learning/26/fr
Translations:AI and Machine Learning/27/en
Translations:AI and Machine Learning/27/fr
Translations:AI and Machine Learning/28/en
Translations:AI and Machine Learning/28/fr
Translations:AI and Machine Learning/29/en
Translations:AI and Machine Learning/29/fr
Translations:AI and Machine Learning/3/en
Translations:AI and Machine Learning/3/fr
Translations:AI and Machine Learning/30/en
Translations:AI and Machine Learning/30/fr
Translations:AI and Machine Learning/31/en
Translations:AI and Machine Learning/31/fr
Translations:AI and Machine Learning/32/en
Translations:AI and Machine Learning/32/fr
Translations:AI and Machine Learning/33/en
Translations:AI and Machine Learning/33/fr
Translations:AI and Machine Learning/34/en
Translations:AI and Machine Learning/34/fr
Translations:AI and Machine Learning/35/en
Translations:AI and Machine Learning/35/fr
Translations:AI and Machine Learning/36/en
Translations:AI and Machine Learning/36/fr
Translations:AI and Machine Learning/37/en
Translations:AI and Machine Learning/37/fr
Translations:AI and Machine Learning/38/en
Translations:AI and Machine Learning/38/fr
Translations:AI and Machine Learning/39/en
Translations:AI and Machine Learning/39/fr
Translations:AI and Machine Learning/4/en
Translations:AI and Machine Learning/4/fr
Translations:AI and Machine Learning/40/en
Translations:AI and Machine Learning/40/fr
Translations:AI and Machine Learning/41/en
Translations:AI and Machine Learning/41/fr
Translations:AI and Machine Learning/42/en
Translations:AI and Machine Learning/42/fr
Translations:AI and Machine Learning/5/en
Translations:AI and Machine Learning/5/fr
Translations:AI and Machine Learning/6/en
Translations:AI and Machine Learning/6/fr
Translations:AI and Machine Learning/7/en
Translations:AI and Machine Learning/7/fr
Translations:AI and Machine Learning/8/en
Translations:AI and Machine Learning/8/fr
Translations:AI and Machine Learning/9/en
Translations:AI and Machine Learning/9/fr
Translations:AI and Machine Learning/Page display title/en
Translations:AI and Machine Learning/Page display title/fr
Translations:AMBER/1/en
Translations:AMBER/1/fr
Translations:AMBER/10/en
Translations:AMBER/10/fr
Translations:AMBER/11/en
Translations:AMBER/11/fr
Translations:AMBER/12/en
Translations:AMBER/12/fr
Translations:AMBER/13/en
Translations:AMBER/13/fr
Translations:AMBER/14/en
Translations:AMBER/14/fr
Translations:AMBER/15/en
Translations:AMBER/15/fr
Translations:AMBER/16/en
Translations:AMBER/16/fr
Translations:AMBER/17/en
Translations:AMBER/17/fr
Translations:AMBER/18/en
Translations:AMBER/18/fr
Translations:AMBER/19/en
Translations:AMBER/19/fr
Translations:AMBER/2/en
Translations:AMBER/2/fr
Translations:AMBER/20/en
Translations:AMBER/20/fr
Translations:AMBER/21/en
Translations:AMBER/21/fr
Translations:AMBER/22/en
Translations:AMBER/22/fr
Translations:AMBER/23/en
Translations:AMBER/23/fr
Translations:AMBER/24/en
Translations:AMBER/24/fr
Translations:AMBER/25/en
Translations:AMBER/25/fr
Translations:AMBER/26/en
Translations:AMBER/26/fr
Translations:AMBER/27/en
Translations:AMBER/27/fr
Translations:AMBER/28/en
Translations:AMBER/28/fr
Translations:AMBER/29/en
Translations:AMBER/29/fr
Translations:AMBER/3/en
Translations:AMBER/3/fr
Translations:AMBER/30/en
Translations:AMBER/30/fr
Translations:AMBER/31/en
Translations:AMBER/31/fr
Translations:AMBER/32/en
Translations:AMBER/32/fr
Translations:AMBER/33/en
Translations:AMBER/33/fr
Translations:AMBER/34/en
Translations:AMBER/34/fr
Translations:AMBER/35/en
Translations:AMBER/35/fr
Translations:AMBER/36/en
Translations:AMBER/36/fr
Translations:AMBER/37/en
Translations:AMBER/37/fr
Translations:AMBER/38/en
Translations:AMBER/38/fr
Translations:AMBER/39/en
Translations:AMBER/39/fr
Translations:AMBER/4/en
Translations:AMBER/4/fr
Translations:AMBER/40/en
Translations:AMBER/40/fr
Translations:AMBER/41/en
Translations:AMBER/41/fr
Translations:AMBER/42/en
Translations:AMBER/42/fr
Translations:AMBER/43/en
Translations:AMBER/43/fr
Translations:AMBER/44/en
Translations:AMBER/44/fr
Translations:AMBER/45/en
Translations:AMBER/45/fr
Translations:AMBER/46/en
Translations:AMBER/46/fr
Translations:AMBER/47/en
Translations:AMBER/47/fr
Translations:AMBER/48/en
Translations:AMBER/48/fr
Translations:AMBER/49/en
Translations:AMBER/49/fr
Translations:AMBER/5/en
Translations:AMBER/5/fr
Translations:AMBER/50/en
Translations:AMBER/50/fr
Translations:AMBER/51/en
Translations:AMBER/51/fr
Translations:AMBER/52/en
Translations:AMBER/52/fr
Translations:AMBER/53/en
Translations:AMBER/53/fr
Translations:AMBER/54/en
Translations:AMBER/54/fr
Translations:AMBER/55/en
Translations:AMBER/55/fr
Translations:AMBER/56/en
Translations:AMBER/56/fr
Translations:AMBER/57/en
Translations:AMBER/57/fr
Translations:AMBER/58/en
Translations:AMBER/58/fr
Translations:AMBER/59/en
Translations:AMBER/59/fr
Translations:AMBER/6/en
Translations:AMBER/6/fr
Translations:AMBER/60/en
Translations:AMBER/60/fr
Translations:AMBER/61/en
Translations:AMBER/61/fr
Translations:AMBER/62/en
Translations:AMBER/62/fr
Translations:AMBER/63/en
Translations:AMBER/63/fr
Translations:AMBER/64/en
Translations:AMBER/64/fr
Translations:AMBER/65/en
Translations:AMBER/65/fr
Translations:AMBER/66/en
Translations:AMBER/66/fr
Translations:AMBER/67/en
Translations:AMBER/67/fr
Translations:AMBER/68/en
Translations:AMBER/68/fr
Translations:AMBER/69/en
Translations:AMBER/69/fr
Translations:AMBER/7/en
Translations:AMBER/7/fr
Translations:AMBER/70/en
Translations:AMBER/70/fr
Translations:AMBER/71/en
Translations:AMBER/71/fr
Translations:AMBER/72/en
Translations:AMBER/72/fr
Translations:AMBER/73/en
Translations:AMBER/73/fr
Translations:AMBER/74/en
Translations:AMBER/74/fr
Translations:AMBER/75/en
Translations:AMBER/75/fr
Translations:AMBER/76/en
Translations:AMBER/76/fr
Translations:AMBER/77/en
Translations:AMBER/77/fr
Translations:AMBER/8/en
Translations:AMBER/8/fr
Translations:AMBER/9/en
Translations:AMBER/9/fr
Translations:AMBER/Page display title/en
Translations:AMBER/Page display title/fr
Translations:AMS/10/en
Translations:AMS/10/fr
Translations:AMS/12/en
Translations:AMS/12/fr
Translations:AMS/14/en
Translations:AMS/14/fr
Translations:AMS/16/en
Translations:AMS/16/fr
Translations:AMS/18/en
Translations:AMS/18/fr
Translations:AMS/2/en
Translations:AMS/2/fr
Translations:AMS/20/en
Translations:AMS/20/fr
Translations:AMS/24/en
Translations:AMS/24/fr
Translations:AMS/26/en
Translations:AMS/26/fr
Translations:AMS/30/en
Translations:AMS/30/fr
Translations:AMS/32/en
Translations:AMS/32/fr
Translations:AMS/34/en
Translations:AMS/34/fr
Translations:AMS/35/en
Translations:AMS/35/fr
Translations:AMS/36/en
Translations:AMS/36/fr
Translations:AMS/38/en
Translations:AMS/38/fr
Translations:AMS/4/en
Translations:AMS/4/fr
Translations:AMS/40/en
Translations:AMS/40/fr
Translations:AMS/41/en
Translations:AMS/41/fr
Translations:AMS/42/en
Translations:AMS/42/fr
Translations:AMS/43/en
Translations:AMS/43/fr
Translations:AMS/44/en
Translations:AMS/44/fr
Translations:AMS/45/en
Translations:AMS/45/fr
Translations:AMS/6/en
Translations:AMS/6/fr
Translations:AMS/8/en
Translations:AMS/8/fr
Translations:AMS/Page display title/en
Translations:AMS/Page display title/fr
Translations:ARM software/1/en
Translations:ARM software/1/fr
Translations:ARM software/10/en
Translations:ARM software/10/fr
Translations:ARM software/11/en
Translations:ARM software/11/fr
Translations:ARM software/12/en
Translations:ARM software/12/fr
Translations:ARM software/13/en
Translations:ARM software/13/fr
Translations:ARM software/14/en
Translations:ARM software/14/fr
Translations:ARM software/15/en
Translations:ARM software/15/fr
Translations:ARM software/16/en
Translations:ARM software/16/fr
Translations:ARM software/17/en
Translations:ARM software/17/fr
Translations:ARM software/18/en
Translations:ARM software/18/fr
Translations:ARM software/19/en
Translations:ARM software/19/fr
Translations:ARM software/2/en
Translations:ARM software/2/fr
Translations:ARM software/20/en
Translations:ARM software/20/fr
Translations:ARM software/21/en
Translations:ARM software/21/fr
Translations:ARM software/22/en
Translations:ARM software/22/fr
Translations:ARM software/23/en
Translations:ARM software/23/fr
Translations:ARM software/24/en
Translations:ARM software/24/fr
Translations:ARM software/25/en
Translations:ARM software/25/fr
Translations:ARM software/26/en
Translations:ARM software/26/fr
Translations:ARM software/27/en
Translations:ARM software/27/fr
Translations:ARM software/28/en
Translations:ARM software/28/fr
Translations:ARM software/29/en
Translations:ARM software/29/fr
Translations:ARM software/3/en
Translations:ARM software/3/fr
Translations:ARM software/30/en
Translations:ARM software/30/fr
Translations:ARM software/31/en
Translations:ARM software/31/fr
Translations:ARM software/32/en
Translations:ARM software/32/fr
Translations:ARM software/33/en
Translations:ARM software/33/fr
Translations:ARM software/34/en
Translations:ARM software/34/fr
Translations:ARM software/35/en
Translations:ARM software/35/fr
Translations:ARM software/36/en
Translations:ARM software/36/fr
Translations:ARM software/37/en
Translations:ARM software/37/fr
Translations:ARM software/38/en
Translations:ARM software/38/fr
Translations:ARM software/39/en
Translations:ARM software/39/fr
Translations:ARM software/4/en
Translations:ARM software/4/fr
Translations:ARM software/40/en
Translations:ARM software/40/fr
Translations:ARM software/41/en
Translations:ARM software/41/fr
Translations:ARM software/42/en
Translations:ARM software/42/fr
Translations:ARM software/43/en
Translations:ARM software/43/fr
Translations:ARM software/44/en
Translations:ARM software/44/fr
Translations:ARM software/45/en
Translations:ARM software/45/fr
Translations:ARM software/46/en
Translations:ARM software/46/fr
Translations:ARM software/47/en
Translations:ARM software/47/fr
Translations:ARM software/48/en
Translations:ARM software/48/fr
Translations:ARM software/49/en
Translations:ARM software/49/fr
Translations:ARM software/5/en
Translations:ARM software/5/fr
Translations:ARM software/50/en
Translations:ARM software/50/fr
Translations:ARM software/51/en
Translations:ARM software/51/fr
Translations:ARM software/52/en
Translations:ARM software/52/fr
Translations:ARM software/53/en
Translations:ARM software/53/fr
Translations:ARM software/54/en
Translations:ARM software/54/fr
Translations:ARM software/55/en
Translations:ARM software/55/fr
Translations:ARM software/56/en
Translations:ARM software/56/fr
Translations:ARM software/57/en
Translations:ARM software/57/fr
Translations:ARM software/6/en
Translations:ARM software/6/fr
Translations:ARM software/7/en
Translations:ARM software/7/fr
Translations:ARM software/8/en
Translations:ARM software/8/fr
Translations:ARM software/9/en
Translations:ARM software/9/fr
Translations:ARM software/Page display title/en
Translations:ARM software/Page display title/fr
Translations:A tutorial on 'tar'/1/en
Translations:A tutorial on 'tar'/1/fr
Translations:A tutorial on 'tar'/10/en
Translations:A tutorial on 'tar'/10/fr
Translations:A tutorial on 'tar'/100/en
Translations:A tutorial on 'tar'/100/fr
Translations:A tutorial on 'tar'/101/en
Translations:A tutorial on 'tar'/101/fr
Translations:A tutorial on 'tar'/102/en
Translations:A tutorial on 'tar'/102/fr
Translations:A tutorial on 'tar'/103/en
Translations:A tutorial on 'tar'/103/fr
Translations:A tutorial on 'tar'/104/en
Translations:A tutorial on 'tar'/104/fr
Translations:A tutorial on 'tar'/105/en
Translations:A tutorial on 'tar'/105/fr
Translations:A tutorial on 'tar'/106/en
Translations:A tutorial on 'tar'/106/fr
Translations:A tutorial on 'tar'/107/en
Translations:A tutorial on 'tar'/107/fr
Translations:A tutorial on 'tar'/108/en
Translations:A tutorial on 'tar'/108/fr
Translations:A tutorial on 'tar'/109/en
Translations:A tutorial on 'tar'/109/fr
Translations:A tutorial on 'tar'/11/en
Translations:A tutorial on 'tar'/11/fr
Translations:A tutorial on 'tar'/110/en
Translations:A tutorial on 'tar'/110/fr
Translations:A tutorial on 'tar'/111/en
Translations:A tutorial on 'tar'/111/fr
Translations:A tutorial on 'tar'/112/en
Translations:A tutorial on 'tar'/112/fr
Translations:A tutorial on 'tar'/113/en
Translations:A tutorial on 'tar'/113/fr
Translations:A tutorial on 'tar'/114/en
Translations:A tutorial on 'tar'/114/fr
Translations:A tutorial on 'tar'/115/en
Translations:A tutorial on 'tar'/115/fr
Translations:A tutorial on 'tar'/116/en
Translations:A tutorial on 'tar'/116/fr
Translations:A tutorial on 'tar'/117/en
Translations:A tutorial on 'tar'/117/fr
Translations:A tutorial on 'tar'/118/en
Translations:A tutorial on 'tar'/118/fr
Translations:A tutorial on 'tar'/119/en
Translations:A tutorial on 'tar'/119/fr
Translations:A tutorial on 'tar'/12/en
Translations:A tutorial on 'tar'/12/fr
Translations:A tutorial on 'tar'/120/en
Translations:A tutorial on 'tar'/120/fr
Translations:A tutorial on 'tar'/121/en
Translations:A tutorial on 'tar'/121/fr
Translations:A tutorial on 'tar'/122/en
Translations:A tutorial on 'tar'/122/fr
Translations:A tutorial on 'tar'/123/en
Translations:A tutorial on 'tar'/123/fr
Translations:A tutorial on 'tar'/124/en
Translations:A tutorial on 'tar'/124/fr
Translations:A tutorial on 'tar'/125/en
Translations:A tutorial on 'tar'/125/fr
Translations:A tutorial on 'tar'/126/en
Translations:A tutorial on 'tar'/126/fr
Translations:A tutorial on 'tar'/127/en
Translations:A tutorial on 'tar'/127/fr
Translations:A tutorial on 'tar'/128/en
Translations:A tutorial on 'tar'/128/fr
Translations:A tutorial on 'tar'/129/en
Translations:A tutorial on 'tar'/129/fr
Translations:A tutorial on 'tar'/13/en
Translations:A tutorial on 'tar'/13/fr
Translations:A tutorial on 'tar'/130/en
Translations:A tutorial on 'tar'/130/fr
Translations:A tutorial on 'tar'/131/en
Translations:A tutorial on 'tar'/131/fr
Translations:A tutorial on 'tar'/132/en
Translations:A tutorial on 'tar'/132/fr
Translations:A tutorial on 'tar'/133/en
Translations:A tutorial on 'tar'/133/fr
Translations:A tutorial on 'tar'/134/en
Translations:A tutorial on 'tar'/134/fr
Translations:A tutorial on 'tar'/135/en
Translations:A tutorial on 'tar'/135/fr
Translations:A tutorial on 'tar'/136/en
Translations:A tutorial on 'tar'/136/fr
Translations:A tutorial on 'tar'/137/en
Translations:A tutorial on 'tar'/137/fr
Translations:A tutorial on 'tar'/138/en
Translations:A tutorial on 'tar'/138/fr
Translations:A tutorial on 'tar'/139/en
Translations:A tutorial on 'tar'/139/fr
Translations:A tutorial on 'tar'/14/en
Translations:A tutorial on 'tar'/14/fr
Translations:A tutorial on 'tar'/140/en
Translations:A tutorial on 'tar'/140/fr
Translations:A tutorial on 'tar'/141/en
Translations:A tutorial on 'tar'/141/fr
Translations:A tutorial on 'tar'/142/en
Translations:A tutorial on 'tar'/142/fr
Translations:A tutorial on 'tar'/143/en
Translations:A tutorial on 'tar'/143/fr
Translations:A tutorial on 'tar'/144/en
Translations:A tutorial on 'tar'/144/fr
Translations:A tutorial on 'tar'/145/en
Translations:A tutorial on 'tar'/145/fr
Translations:A tutorial on 'tar'/146/en
Translations:A tutorial on 'tar'/146/fr
Translations:A tutorial on 'tar'/147/en
Translations:A tutorial on 'tar'/147/fr
Translations:A tutorial on 'tar'/148/en
Translations:A tutorial on 'tar'/148/fr
Translations:A tutorial on 'tar'/149/en
Translations:A tutorial on 'tar'/149/fr
Translations:A tutorial on 'tar'/15/en
Translations:A tutorial on 'tar'/15/fr
Translations:A tutorial on 'tar'/150/en
Translations:A tutorial on 'tar'/150/fr
Translations:A tutorial on 'tar'/151/en
Translations:A tutorial on 'tar'/151/fr
Translations:A tutorial on 'tar'/152/en
Translations:A tutorial on 'tar'/152/fr
Translations:A tutorial on 'tar'/153/en
Translations:A tutorial on 'tar'/153/fr
Translations:A tutorial on 'tar'/154/en
Translations:A tutorial on 'tar'/154/fr
Translations:A tutorial on 'tar'/155/en
Translations:A tutorial on 'tar'/155/fr
Translations:A tutorial on 'tar'/156/en
Translations:A tutorial on 'tar'/156/fr
Translations:A tutorial on 'tar'/157/en
Translations:A tutorial on 'tar'/157/fr
Translations:A tutorial on 'tar'/158/en
Translations:A tutorial on 'tar'/158/fr
Translations:A tutorial on 'tar'/159/en
Translations:A tutorial on 'tar'/159/fr
Translations:A tutorial on 'tar'/16/en
Translations:A tutorial on 'tar'/16/fr
Translations:A tutorial on 'tar'/160/en
Translations:A tutorial on 'tar'/160/fr
Translations:A tutorial on 'tar'/161/en
Translations:A tutorial on 'tar'/161/fr
Translations:A tutorial on 'tar'/162/en
Translations:A tutorial on 'tar'/162/fr
Translations:A tutorial on 'tar'/163/en
Translations:A tutorial on 'tar'/163/fr
Translations:A tutorial on 'tar'/164/en
Translations:A tutorial on 'tar'/164/fr
Translations:A tutorial on 'tar'/165/en
Translations:A tutorial on 'tar'/165/fr
Translations:A tutorial on 'tar'/166/en
Translations:A tutorial on 'tar'/166/fr
Translations:A tutorial on 'tar'/167/en
Translations:A tutorial on 'tar'/167/fr
Translations:A tutorial on 'tar'/168/en
Translations:A tutorial on 'tar'/168/fr
Translations:A tutorial on 'tar'/169/en
Translations:A tutorial on 'tar'/169/fr
Translations:A tutorial on 'tar'/17/en
Translations:A tutorial on 'tar'/17/fr
Translations:A tutorial on 'tar'/170/en
Translations:A tutorial on 'tar'/170/fr
Translations:A tutorial on 'tar'/171/en
Translations:A tutorial on 'tar'/171/fr
Translations:A tutorial on 'tar'/172/en
Translations:A tutorial on 'tar'/172/fr
Translations:A tutorial on 'tar'/173/en
Translations:A tutorial on 'tar'/173/fr
Translations:A tutorial on 'tar'/174/en
Translations:A tutorial on 'tar'/174/fr
Translations:A tutorial on 'tar'/175/en
Translations:A tutorial on 'tar'/175/fr
Translations:A tutorial on 'tar'/176/en
Translations:A tutorial on 'tar'/176/fr
Translations:A tutorial on 'tar'/177/en
Translations:A tutorial on 'tar'/177/fr
Translations:A tutorial on 'tar'/178/en
Translations:A tutorial on 'tar'/178/fr
Translations:A tutorial on 'tar'/179/en
Translations:A tutorial on 'tar'/179/fr
Translations:A tutorial on 'tar'/18/en
Translations:A tutorial on 'tar'/18/fr
Translations:A tutorial on 'tar'/180/en
Translations:A tutorial on 'tar'/180/fr
Translations:A tutorial on 'tar'/181/en
Translations:A tutorial on 'tar'/181/fr
Translations:A tutorial on 'tar'/182/en
Translations:A tutorial on 'tar'/182/fr
Translations:A tutorial on 'tar'/183/en
Translations:A tutorial on 'tar'/183/fr
Translations:A tutorial on 'tar'/184/en
Translations:A tutorial on 'tar'/184/fr
Translations:A tutorial on 'tar'/185/en
Translations:A tutorial on 'tar'/185/fr
Translations:A tutorial on 'tar'/186/en
Translations:A tutorial on 'tar'/186/fr
Translations:A tutorial on 'tar'/187/en
Translations:A tutorial on 'tar'/187/fr
Translations:A tutorial on 'tar'/188/en
Translations:A tutorial on 'tar'/188/fr
Translations:A tutorial on 'tar'/189/en
Translations:A tutorial on 'tar'/189/fr
Translations:A tutorial on 'tar'/19/en
Translations:A tutorial on 'tar'/19/fr
Translations:A tutorial on 'tar'/190/en
Translations:A tutorial on 'tar'/190/fr
Translations:A tutorial on 'tar'/191/en
Translations:A tutorial on 'tar'/191/fr
Translations:A tutorial on 'tar'/192/en
Translations:A tutorial on 'tar'/192/fr
Translations:A tutorial on 'tar'/193/en
Translations:A tutorial on 'tar'/193/fr
Translations:A tutorial on 'tar'/194/en
Translations:A tutorial on 'tar'/194/fr
Translations:A tutorial on 'tar'/195/en
Translations:A tutorial on 'tar'/195/fr
Translations:A tutorial on 'tar'/196/en
Translations:A tutorial on 'tar'/196/fr
Translations:A tutorial on 'tar'/197/en
Translations:A tutorial on 'tar'/197/fr
Translations:A tutorial on 'tar'/198/en
Translations:A tutorial on 'tar'/198/fr
Translations:A tutorial on 'tar'/199/en
Translations:A tutorial on 'tar'/199/fr
Translations:A tutorial on 'tar'/2/en
Translations:A tutorial on 'tar'/2/fr
Translations:A tutorial on 'tar'/20/en
Translations:A tutorial on 'tar'/20/fr
Translations:A tutorial on 'tar'/200/en
Translations:A tutorial on 'tar'/200/fr
Translations:A tutorial on 'tar'/201/en
Translations:A tutorial on 'tar'/201/fr
Translations:A tutorial on 'tar'/202/en
Translations:A tutorial on 'tar'/202/fr
Translations:A tutorial on 'tar'/203/en
Translations:A tutorial on 'tar'/203/fr
Translations:A tutorial on 'tar'/204/en
Translations:A tutorial on 'tar'/204/fr
Translations:A tutorial on 'tar'/205/en
Translations:A tutorial on 'tar'/205/fr
Translations:A tutorial on 'tar'/206/en
Translations:A tutorial on 'tar'/206/fr
Translations:A tutorial on 'tar'/207/en
Translations:A tutorial on 'tar'/207/fr
Translations:A tutorial on 'tar'/208/en
Translations:A tutorial on 'tar'/208/fr
Translations:A tutorial on 'tar'/209/en
Translations:A tutorial on 'tar'/209/fr
Translations:A tutorial on 'tar'/21/en
Translations:A tutorial on 'tar'/21/fr
Translations:A tutorial on 'tar'/210/en
Translations:A tutorial on 'tar'/210/fr
Translations:A tutorial on 'tar'/211/en
Translations:A tutorial on 'tar'/211/fr
Translations:A tutorial on 'tar'/212/en
Translations:A tutorial on 'tar'/212/fr
Translations:A tutorial on 'tar'/213/en
Translations:A tutorial on 'tar'/213/fr
Translations:A tutorial on 'tar'/214/en
Translations:A tutorial on 'tar'/214/fr
Translations:A tutorial on 'tar'/215/en
Translations:A tutorial on 'tar'/215/fr
Translations:A tutorial on 'tar'/216/en
Translations:A tutorial on 'tar'/216/fr
Translations:A tutorial on 'tar'/217/en
Translations:A tutorial on 'tar'/217/fr
Translations:A tutorial on 'tar'/218/en
Translations:A tutorial on 'tar'/218/fr
Translations:A tutorial on 'tar'/219/en
Translations:A tutorial on 'tar'/219/fr
Translations:A tutorial on 'tar'/22/en
Translations:A tutorial on 'tar'/22/fr
Translations:A tutorial on 'tar'/220/en
Translations:A tutorial on 'tar'/220/fr
Translations:A tutorial on 'tar'/221/en
Translations:A tutorial on 'tar'/221/fr
Translations:A tutorial on 'tar'/222/en
Translations:A tutorial on 'tar'/222/fr
Translations:A tutorial on 'tar'/223/en
Translations:A tutorial on 'tar'/223/fr
Translations:A tutorial on 'tar'/224/en
Translations:A tutorial on 'tar'/224/fr
Translations:A tutorial on 'tar'/225/en
Translations:A tutorial on 'tar'/225/fr
Translations:A tutorial on 'tar'/226/en
Translations:A tutorial on 'tar'/226/fr
Translations:A tutorial on 'tar'/227/en
Translations:A tutorial on 'tar'/227/fr
Translations:A tutorial on 'tar'/228/en
Translations:A tutorial on 'tar'/228/fr
Translations:A tutorial on 'tar'/229/en
Translations:A tutorial on 'tar'/229/fr
Translations:A tutorial on 'tar'/23/en
Translations:A tutorial on 'tar'/23/fr
Translations:A tutorial on 'tar'/230/en
Translations:A tutorial on 'tar'/230/fr
Translations:A tutorial on 'tar'/231/en
Translations:A tutorial on 'tar'/231/fr
Translations:A tutorial on 'tar'/232/en
Translations:A tutorial on 'tar'/232/fr
Translations:A tutorial on 'tar'/233/en
Translations:A tutorial on 'tar'/233/fr
Translations:A tutorial on 'tar'/24/en
Translations:A tutorial on 'tar'/24/fr
Translations:A tutorial on 'tar'/25/en
Translations:A tutorial on 'tar'/25/fr
Translations:A tutorial on 'tar'/26/en
Translations:A tutorial on 'tar'/26/fr
Translations:A tutorial on 'tar'/27/en
Translations:A tutorial on 'tar'/27/fr
Translations:A tutorial on 'tar'/28/en
Translations:A tutorial on 'tar'/28/fr
Translations:A tutorial on 'tar'/29/en
Translations:A tutorial on 'tar'/29/fr
Translations:A tutorial on 'tar'/3/en
Translations:A tutorial on 'tar'/3/fr
Translations:A tutorial on 'tar'/30/en
Translations:A tutorial on 'tar'/30/fr
Translations:A tutorial on 'tar'/31/en
Translations:A tutorial on 'tar'/31/fr
Translations:A tutorial on 'tar'/32/en
Translations:A tutorial on 'tar'/32/fr
Translations:A tutorial on 'tar'/33/en
Translations:A tutorial on 'tar'/33/fr
Translations:A tutorial on 'tar'/34/en
Translations:A tutorial on 'tar'/34/fr
Translations:A tutorial on 'tar'/35/en
Translations:A tutorial on 'tar'/35/fr
Translations:A tutorial on 'tar'/36/en
Translations:A tutorial on 'tar'/36/fr
Translations:A tutorial on 'tar'/37/en
Translations:A tutorial on 'tar'/37/fr
Translations:A tutorial on 'tar'/38/en
Translations:A tutorial on 'tar'/38/fr
Translations:A tutorial on 'tar'/39/en
Translations:A tutorial on 'tar'/39/fr
Translations:A tutorial on 'tar'/4/en
Translations:A tutorial on 'tar'/4/fr
Translations:A tutorial on 'tar'/40/en
[...]
Translations:Visualization/89/fr
Translations:Visualization/9/en
Translations:Visualization/9/fr
Translations:Visualization/90/en
Translations:Visualization/90/fr
Translations:Visualization/91/en
Translations:Visualization/91/fr
Translations:Visualization/92/en
Translations:Visualization/92/fr
Translations:Visualization/93/en
Translations:Visualization/93/fr
Translations:Visualization/94/en
Translations:Visualization/94/fr
Translations:Visualization/95/en
Translations:Visualization/95/fr
Translations:Visualization/96/en
Translations:Visualization/96/fr
Translations:Visualization/97/en
Translations:Visualization/97/fr
Translations:Visualization/98/en
Translations:Visualization/98/fr
Translations:Visualization/99/en
Translations:Visualization/99/fr
Translations:Visualization/Page display title/en
Translations:Visualization/Page display title/fr
Translations:Vtune/1/en
Translations:Vtune/1/fr
Translations:Vtune/10/en
Translations:Vtune/10/fr
Translations:Vtune/2/en
Translations:Vtune/2/fr
Translations:Vtune/21/en
Translations:Vtune/21/fr
Translations:Vtune/3/en
Translations:Vtune/3/fr
Translations:Vtune/31/en
Translations:Vtune/31/fr
Translations:Vtune/4/en
Translations:Vtune/4/fr
Translations:Vtune/41/en
Translations:Vtune/41/fr
Translations:Vtune/5/en
Translations:Vtune/5/fr
Translations:Vtune/51/en
Translations:Vtune/51/fr
Translations:Vtune/6/en
Translations:Vtune/6/fr
Translations:Vtune/61/en
Translations:Vtune/61/fr
Translations:Vtune/62/en
Translations:Vtune/62/fr
Translations:Vtune/63/en
Translations:Vtune/63/fr
Translations:Vtune/7/en
Translations:Vtune/7/fr
Translations:Vtune/71/en
Translations:Vtune/71/fr
Translations:Vtune/72/en
Translations:Vtune/72/fr
Translations:Vtune/721/en
Translations:Vtune/721/fr
Translations:Vtune/73/en
Translations:Vtune/73/fr
Translations:Vtune/731/en
Translations:Vtune/731/fr
Translations:Vtune/Page display title/en
Translations:Vtune/Page display title/fr
Translations:Vulcan/1/en
Translations:Vulcan/1/fr
Translations:Vulcan/10/en
Translations:Vulcan/10/fr
Translations:Vulcan/11/en
Translations:Vulcan/11/fr
Translations:Vulcan/12/en
Translations:Vulcan/12/fr
Translations:Vulcan/13/en
Translations:Vulcan/13/fr
Translations:Vulcan/14/en
Translations:Vulcan/14/fr
Translations:Vulcan/15/en
Translations:Vulcan/15/fr
Translations:Vulcan/16/en
Translations:Vulcan/16/fr
Translations:Vulcan/17/en
Translations:Vulcan/17/fr
Translations:Vulcan/18/en
Translations:Vulcan/18/fr
Translations:Vulcan/2/en
Translations:Vulcan/2/fr
Translations:Vulcan/3/en
Translations:Vulcan/3/fr
Translations:Vulcan/4/en
Translations:Vulcan/4/fr
Translations:Vulcan/5/en
Translations:Vulcan/5/fr
Translations:Vulcan/6/en
Translations:Vulcan/6/fr
Translations:Vulcan/7/en
Translations:Vulcan/7/fr
Translations:Vulcan/8/en
Translations:Vulcan/8/fr
Translations:Vulcan/9/en
Translations:Vulcan/9/fr
Translations:Vulcan/Page display title/en
Translations:Vulcan/Page display title/fr
Translations:WRF/1/en
Translations:WRF/1/fr
Translations:WRF/Page display title/en
Translations:WRF/Page display title/fr
Translations:Weights & Biases (wandb)/1/en
Translations:Weights & Biases (wandb)/1/fr
Translations:Weights & Biases (wandb)/10/en
Translations:Weights & Biases (wandb)/10/fr
Translations:Weights & Biases (wandb)/11/en
Translations:Weights & Biases (wandb)/11/fr
Translations:Weights & Biases (wandb)/12/en
Translations:Weights & Biases (wandb)/12/fr
Translations:Weights & Biases (wandb)/13/en
Translations:Weights & Biases (wandb)/13/fr
Translations:Weights & Biases (wandb)/14/en
Translations:Weights & Biases (wandb)/14/fr
Translations:Weights & Biases (wandb)/15/en
Translations:Weights & Biases (wandb)/15/fr
Translations:Weights & Biases (wandb)/16/en
Translations:Weights & Biases (wandb)/16/fr
Translations:Weights & Biases (wandb)/17/en
Translations:Weights & Biases (wandb)/17/fr
Translations:Weights & Biases (wandb)/18/en
Translations:Weights & Biases (wandb)/18/fr
Translations:Weights & Biases (wandb)/19/en
Translations:Weights & Biases (wandb)/19/fr
Translations:Weights & Biases (wandb)/2/en
Translations:Weights & Biases (wandb)/2/fr
Translations:Weights & Biases (wandb)/20/en
Translations:Weights & Biases (wandb)/20/fr
Translations:Weights & Biases (wandb)/21/en
Translations:Weights & Biases (wandb)/21/fr
Translations:Weights & Biases (wandb)/22/en
Translations:Weights & Biases (wandb)/22/fr
Translations:Weights & Biases (wandb)/23/en
Translations:Weights & Biases (wandb)/23/fr
Translations:Weights & Biases (wandb)/24/en
Translations:Weights & Biases (wandb)/24/fr
Translations:Weights & Biases (wandb)/25/en
Translations:Weights & Biases (wandb)/25/fr
Translations:Weights & Biases (wandb)/26/en
Translations:Weights & Biases (wandb)/26/fr
Translations:Weights & Biases (wandb)/27/en
Translations:Weights & Biases (wandb)/27/fr
Translations:Weights & Biases (wandb)/28/en
Translations:Weights & Biases (wandb)/28/fr
Translations:Weights & Biases (wandb)/29/en
Translations:Weights & Biases (wandb)/29/fr
Translations:Weights & Biases (wandb)/3/en
Translations:Weights & Biases (wandb)/3/fr
Translations:Weights & Biases (wandb)/30/en
Translations:Weights & Biases (wandb)/30/fr
Translations:Weights & Biases (wandb)/31/en
Translations:Weights & Biases (wandb)/31/fr
Translations:Weights & Biases (wandb)/32/en
Translations:Weights & Biases (wandb)/32/fr
Translations:Weights & Biases (wandb)/33/en
Translations:Weights & Biases (wandb)/33/fr
Translations:Weights & Biases (wandb)/34/en
Translations:Weights & Biases (wandb)/34/fr
Translations:Weights & Biases (wandb)/35/en
Translations:Weights & Biases (wandb)/35/fr
Translations:Weights & Biases (wandb)/36/en
Translations:Weights & Biases (wandb)/36/fr
Translations:Weights & Biases (wandb)/37/en
Translations:Weights & Biases (wandb)/37/fr
Translations:Weights & Biases (wandb)/38/en
Translations:Weights & Biases (wandb)/38/fr
Translations:Weights & Biases (wandb)/39/en
Translations:Weights & Biases (wandb)/39/fr
Translations:Weights & Biases (wandb)/4/en
Translations:Weights & Biases (wandb)/4/fr
Translations:Weights & Biases (wandb)/40/en
Translations:Weights & Biases (wandb)/40/fr
Translations:Weights & Biases (wandb)/41/en
Translations:Weights & Biases (wandb)/41/fr
Translations:Weights & Biases (wandb)/42/en
Translations:Weights & Biases (wandb)/42/fr
Translations:Weights & Biases (wandb)/43/en
Translations:Weights & Biases (wandb)/43/fr
Translations:Weights & Biases (wandb)/44/en
Translations:Weights & Biases (wandb)/44/fr
Translations:Weights & Biases (wandb)/45/en
Translations:Weights & Biases (wandb)/45/fr
Translations:Weights & Biases (wandb)/46/en
Translations:Weights & Biases (wandb)/46/fr
Translations:Weights & Biases (wandb)/47/en
Translations:Weights & Biases (wandb)/47/fr
Translations:Weights & Biases (wandb)/48/en
Translations:Weights & Biases (wandb)/48/fr
Translations:Weights & Biases (wandb)/49/en
Translations:Weights & Biases (wandb)/49/fr
Translations:Weights & Biases (wandb)/5/en
Translations:Weights & Biases (wandb)/5/fr
Translations:Weights & Biases (wandb)/50/en
Translations:Weights & Biases (wandb)/50/fr
Translations:Weights & Biases (wandb)/51/en
Translations:Weights & Biases (wandb)/51/fr
Translations:Weights & Biases (wandb)/52/en
Translations:Weights & Biases (wandb)/52/fr
Translations:Weights & Biases (wandb)/53/en
Translations:Weights & Biases (wandb)/53/fr
Translations:Weights & Biases (wandb)/6/en
Translations:Weights & Biases (wandb)/6/fr
Translations:Weights & Biases (wandb)/7/en
Translations:Weights & Biases (wandb)/7/fr
Translations:Weights & Biases (wandb)/8/en
Translations:Weights & Biases (wandb)/8/fr
Translations:Weights & Biases (wandb)/9/en
Translations:Weights & Biases (wandb)/9/fr
Translations:Weights & Biases (wandb)/Page display title/en
Translations:Weights & Biases (wandb)/Page display title/fr
Translations:What is a scheduler?/1/en
Translations:What is a scheduler?/1/fr
Translations:What is a scheduler?/10/en
Translations:What is a scheduler?/10/fr
Translations:What is a scheduler?/11/en
Translations:What is a scheduler?/11/fr
Translations:What is a scheduler?/12/en
Translations:What is a scheduler?/12/fr
Translations:What is a scheduler?/13/en
Translations:What is a scheduler?/13/fr
Translations:What is a scheduler?/14/en
Translations:What is a scheduler?/14/fr
Translations:What is a scheduler?/15/en
Translations:What is a scheduler?/15/fr
Translations:What is a scheduler?/16/en
Translations:What is a scheduler?/16/fr
Translations:What is a scheduler?/17/en
Translations:What is a scheduler?/17/fr
Translations:What is a scheduler?/18/en
Translations:What is a scheduler?/18/fr
Translations:What is a scheduler?/2/en
Translations:What is a scheduler?/2/fr
Translations:What is a scheduler?/3/en
Translations:What is a scheduler?/3/fr
Translations:What is a scheduler?/4/en
Translations:What is a scheduler?/4/fr
Translations:What is a scheduler?/5/en
Translations:What is a scheduler?/5/fr
Translations:What is a scheduler?/6/en
Translations:What is a scheduler?/6/fr
Translations:What is a scheduler?/7/en
Translations:What is a scheduler?/7/fr
Translations:What is a scheduler?/8/en
Translations:What is a scheduler?/8/fr
Translations:What is a scheduler?/9/en
Translations:What is a scheduler?/9/fr
Translations:What is a scheduler?/Page display title/en
Translations:What is a scheduler?/Page display title/fr
Translations:Windows Subsystem for Linux (WSL)/1/en
Translations:Windows Subsystem for Linux (WSL)/1/fr
Translations:Windows Subsystem for Linux (WSL)/10/en
Translations:Windows Subsystem for Linux (WSL)/10/fr
Translations:Windows Subsystem for Linux (WSL)/11/en
Translations:Windows Subsystem for Linux (WSL)/11/fr
Translations:Windows Subsystem for Linux (WSL)/12/en
Translations:Windows Subsystem for Linux (WSL)/12/fr
Translations:Windows Subsystem for Linux (WSL)/13/en
Translations:Windows Subsystem for Linux (WSL)/13/fr
Translations:Windows Subsystem for Linux (WSL)/14/en
Translations:Windows Subsystem for Linux (WSL)/14/fr
Translations:Windows Subsystem for Linux (WSL)/15/en
Translations:Windows Subsystem for Linux (WSL)/15/fr
Translations:Windows Subsystem for Linux (WSL)/16/en
Translations:Windows Subsystem for Linux (WSL)/16/fr
Translations:Windows Subsystem for Linux (WSL)/17/en
Translations:Windows Subsystem for Linux (WSL)/17/fr
Translations:Windows Subsystem for Linux (WSL)/18/en
Translations:Windows Subsystem for Linux (WSL)/19/en
Translations:Windows Subsystem for Linux (WSL)/19/fr
Translations:Windows Subsystem for Linux (WSL)/2/en
Translations:Windows Subsystem for Linux (WSL)/2/fr
Translations:Windows Subsystem for Linux (WSL)/20/en
Translations:Windows Subsystem for Linux (WSL)/20/fr
Translations:Windows Subsystem for Linux (WSL)/21/en
Translations:Windows Subsystem for Linux (WSL)/21/fr
Translations:Windows Subsystem for Linux (WSL)/22/en
Translations:Windows Subsystem for Linux (WSL)/22/fr
Translations:Windows Subsystem for Linux (WSL)/23/en
Translations:Windows Subsystem for Linux (WSL)/23/fr
Translations:Windows Subsystem for Linux (WSL)/24/en
Translations:Windows Subsystem for Linux (WSL)/24/fr
Translations:Windows Subsystem for Linux (WSL)/25/en
Translations:Windows Subsystem for Linux (WSL)/25/fr
Translations:Windows Subsystem for Linux (WSL)/26/en
Translations:Windows Subsystem for Linux (WSL)/26/fr
Translations:Windows Subsystem for Linux (WSL)/27/en
Translations:Windows Subsystem for Linux (WSL)/27/fr
Translations:Windows Subsystem for Linux (WSL)/28/en
Translations:Windows Subsystem for Linux (WSL)/28/fr
Translations:Windows Subsystem for Linux (WSL)/29/en
Translations:Windows Subsystem for Linux (WSL)/3/en
Translations:Windows Subsystem for Linux (WSL)/3/fr
Translations:Windows Subsystem for Linux (WSL)/30/en
Translations:Windows Subsystem for Linux (WSL)/31/en
Translations:Windows Subsystem for Linux (WSL)/32/en
Translations:Windows Subsystem for Linux (WSL)/33/en
Translations:Windows Subsystem for Linux (WSL)/34/en
Translations:Windows Subsystem for Linux (WSL)/35/en
Translations:Windows Subsystem for Linux (WSL)/36/en
Translations:Windows Subsystem for Linux (WSL)/37/en
Translations:Windows Subsystem for Linux (WSL)/38/en
Translations:Windows Subsystem for Linux (WSL)/39/en
Translations:Windows Subsystem for Linux (WSL)/4/en
Translations:Windows Subsystem for Linux (WSL)/4/fr
Translations:Windows Subsystem for Linux (WSL)/40/en
Translations:Windows Subsystem for Linux (WSL)/41/en
Translations:Windows Subsystem for Linux (WSL)/42/en
Translations:Windows Subsystem for Linux (WSL)/43/en
Translations:Windows Subsystem for Linux (WSL)/44/en
Translations:Windows Subsystem for Linux (WSL)/45/en
Translations:Windows Subsystem for Linux (WSL)/46/en
Translations:Windows Subsystem for Linux (WSL)/47/en
Translations:Windows Subsystem for Linux (WSL)/48/en
Translations:Windows Subsystem for Linux (WSL)/49/en
Translations:Windows Subsystem for Linux (WSL)/5/en
Translations:Windows Subsystem for Linux (WSL)/5/fr
Translations:Windows Subsystem for Linux (WSL)/50/en
Translations:Windows Subsystem for Linux (WSL)/51/en
Translations:Windows Subsystem for Linux (WSL)/52/en
Translations:Windows Subsystem for Linux (WSL)/53/en
Translations:Windows Subsystem for Linux (WSL)/54/en
Translations:Windows Subsystem for Linux (WSL)/55/en
Translations:Windows Subsystem for Linux (WSL)/56/en
Translations:Windows Subsystem for Linux (WSL)/57/en
Translations:Windows Subsystem for Linux (WSL)/58/en
Translations:Windows Subsystem for Linux (WSL)/58/fr
Translations:Windows Subsystem for Linux (WSL)/59/en
Translations:Windows Subsystem for Linux (WSL)/59/fr
Translations:Windows Subsystem for Linux (WSL)/6/en
Translations:Windows Subsystem for Linux (WSL)/6/fr
Translations:Windows Subsystem for Linux (WSL)/60/en
Translations:Windows Subsystem for Linux (WSL)/60/fr
Translations:Windows Subsystem for Linux (WSL)/61/en
Translations:Windows Subsystem for Linux (WSL)/61/fr
Translations:Windows Subsystem for Linux (WSL)/62/en
Translations:Windows Subsystem for Linux (WSL)/62/fr
Translations:Windows Subsystem for Linux (WSL)/63/en
Translations:Windows Subsystem for Linux (WSL)/63/fr
Translations:Windows Subsystem for Linux (WSL)/7/en
Translations:Windows Subsystem for Linux (WSL)/7/fr
Translations:Windows Subsystem for Linux (WSL)/8/en
Translations:Windows Subsystem for Linux (WSL)/8/fr
Translations:Windows Subsystem for Linux (WSL)/9/en
Translations:Windows Subsystem for Linux (WSL)/9/fr
Translations:Windows Subsystem for Linux (WSL)/Page display title/en
Translations:Windows Subsystem for Linux (WSL)/Page display title/fr
Translations:Working with VMs/1/en
Translations:Working with VMs/1/fr
Translations:Working with VMs/2/en
Translations:Working with VMs/2/fr
Translations:Working with VMs/3/en
Translations:Working with VMs/3/fr
Translations:Working with VMs/4/en
Translations:Working with VMs/4/fr
Translations:Working with VMs/5/en
Translations:Working with VMs/5/fr
Translations:Working with VMs/6/en
Translations:Working with VMs/6/fr
Translations:Working with VMs/7/en
Translations:Working with VMs/7/fr
Translations:Working with VMs/8/en
Translations:Working with VMs/8/fr
Translations:Working with VMs/9/en
Translations:Working with VMs/9/fr
Translations:Working with VMs/Page display title/en
Translations:Working with VMs/Page display title/fr
Translations:Working with images/1/en
Translations:Working with images/1/fr
Translations:Working with images/10/en
Translations:Working with images/10/fr
Translations:Working with images/11/en
Translations:Working with images/11/fr
Translations:Working with images/12/en
Translations:Working with images/12/fr
Translations:Working with images/13/en
Translations:Working with images/13/fr
Translations:Working with images/14/en
Translations:Working with images/14/fr
Translations:Working with images/15/en
Translations:Working with images/15/fr
Translations:Working with images/16/en
Translations:Working with images/16/fr
Translations:Working with images/17/en
Translations:Working with images/17/fr
Translations:Working with images/18/en
Translations:Working with images/18/fr
Translations:Working with images/19/en
Translations:Working with images/19/fr
Translations:Working with images/2/en
Translations:Working with images/2/fr
Translations:Working with images/20/en
Translations:Working with images/20/fr
Translations:Working with images/21/en
Translations:Working with images/21/fr
Translations:Working with images/3/en
Translations:Working with images/3/fr
Translations:Working with images/4/en
Translations:Working with images/4/fr
Translations:Working with images/5/en
Translations:Working with images/5/fr
Translations:Working with images/6/en
Translations:Working with images/6/fr
Translations:Working with images/7/en
Translations:Working with images/7/fr
Translations:Working with images/8/en
Translations:Working with images/8/fr
Translations:Working with images/9/en
Translations:Working with images/9/fr
Translations:Working with images/Page display title/en
Translations:Working with images/Page display title/fr
Translations:Working with volumes/1/en
Translations:Working with volumes/1/fr
Translations:Working with volumes/10/en
Translations:Working with volumes/10/fr
Translations:Working with volumes/11/en
Translations:Working with volumes/11/fr
Translations:Working with volumes/12/en
Translations:Working with volumes/12/fr
Translations:Working with volumes/13/en
Translations:Working with volumes/13/fr
Translations:Working with volumes/14/en
Translations:Working with volumes/14/fr
Translations:Working with volumes/15/en
Translations:Working with volumes/15/fr
Translations:Working with volumes/16/en
Translations:Working with volumes/16/fr
Translations:Working with volumes/17/en
Translations:Working with volumes/17/fr
Translations:Working with volumes/18/en
Translations:Working with volumes/18/fr
Translations:Working with volumes/19/en
Translations:Working with volumes/19/fr
Translations:Working with volumes/2/en
Translations:Working with volumes/2/fr
Translations:Working with volumes/20/en
Translations:Working with volumes/20/fr
Translations:Working with volumes/21/en
Translations:Working with volumes/21/fr
Translations:Working with volumes/22/en
Translations:Working with volumes/22/fr
Translations:Working with volumes/23/en
Translations:Working with volumes/23/fr
Translations:Working with volumes/24/en
Translations:Working with volumes/24/fr
Translations:Working with volumes/25/en
Translations:Working with volumes/25/fr
Translations:Working with volumes/26/en
Translations:Working with volumes/26/fr
Translations:Working with volumes/27/en
Translations:Working with volumes/27/fr
Translations:Working with volumes/28/en
Translations:Working with volumes/28/fr
Translations:Working with volumes/29/en
Translations:Working with volumes/29/fr
Translations:Working with volumes/3/en
Translations:Working with volumes/3/fr
Translations:Working with volumes/4/en
Translations:Working with volumes/4/fr
Translations:Working with volumes/5/en
Translations:Working with volumes/5/fr
Translations:Working with volumes/6/en
Translations:Working with volumes/6/fr
Translations:Working with volumes/7/en
Translations:Working with volumes/7/fr
Translations:Working with volumes/8/en
Translations:Working with volumes/8/fr
Translations:Working with volumes/9/en
Translations:Working with volumes/9/fr
Translations:Working with volumes/Page display title/en
Translations:Working with volumes/Page display title/fr
Translations:Yt/1/en
Translations:Yt/1/fr
Translations:Yt/10/en
Translations:Yt/10/fr
Translations:Yt/11/en
Translations:Yt/11/fr
Translations:Yt/2/en
Translations:Yt/2/fr
Translations:Yt/3/en
Translations:Yt/3/fr
Translations:Yt/4/en
Translations:Yt/4/fr
Translations:Yt/5/en
Translations:Yt/5/fr
Translations:Yt/6/en
Translations:Yt/6/fr
Translations:Yt/7/en
Translations:Yt/7/fr
Translations:Yt/8/en
Translations:Yt/8/fr
Translations:Yt/9/en
Translations:Yt/9/fr
Translations:Yt/Page display title/en
Translations:Yt/Page display title/fr
--END--
